+ 0.5 1 2 tcp 40 ------- 1 1.0 4.0 0 0
- 0.5 1 2 tcp 40 ------- 1 1.0 4.0 0 0
r 0.51032 1 2 tcp 40 ------- 1 1.0 4.0 0 0
+ 0.51032 2 3 tcp 40 ------- 1 1.0 4.0 0 0
- 0.51032 2 3 tcp 40 ------- 1 1.0 4.0 0 0
r 0.52064 2 3 tcp 40 ------- 1 1.0 4.0 0 0
+ 0.52064 3 4 tcp 40 ------- 1 1.0 4.0 0 0
- 0.52064 3 4 tcp 40 ------- 1 1.0 4.0 0 0
r 0.53096 3 4 tcp 40 ------- 1 1.0 4.0 0 0
+ 0.53096 4 5 ack 40 ------- 1 4.0 1.0 0 1
- 0.53096 4 5 ack 40 ------- 1 4.0 1.0 0 1
r 0.54128 4 5 ack 40 ------- 1 4.0 1.0 0 1
+ 0.54128 5 0 ack 40 ------- 1 4.0 1.0 0 1
- 0.54128 5 0 ack 40 ------- 1 4.0 1.0 0 1
r 0.5516 5 0 ack 40 ------- 1 4.0 1.0 0 1
+ 0.5516 0 1 ack 40 ------- 1 4.0 1.0 0 1
- 0.5516 0 1 ack 40 ------- 1 4.0 1.0 0 1
r 0.56192 0 1 ack 40 ------- 1 4.0 1.0 0 1
+ 0.56192 1 2 tcp 1040 ------- 1 1.0 4.0 1 2
- 0.56192 1 2 tcp 1040 ------- 1 1.0 4.0 1 2
+ 0.56192 1 2 tcp 1040 ------- 1 1.0 4.0 2 3
- 0.57024 1 2 tcp 1040 ------- 1 1.0 4.0 2 3
r 0.58024 1 2 tcp 1040 ------- 1 1.0 4.0 1 2
+ 0.58024 2 3 tcp 1040 ------- 1 1.0 4.0 1 2
- 0.58024 2 3 tcp 1040 ------- 1 1.0 4.0 1 2
r 0.58856 1 2 tcp 1040 ------- 1 1.0 4.0 2 3
+ 0.58856 2 3 tcp 1040 ------- 1 1.0 4.0 2 3
- 0.58856 2 3 tcp 1040 ------- 1 1.0 4.0 2 3
r 0.59856 2 3 tcp 1040 ------- 1 1.0 4.0 1 2
+ 0.59856 3 4 tcp 1040 ------- 1 1.0 4.0 1 2
- 0.59856 3 4 tcp 1040 ------- 1 1.0 4.0 1 2
r 0.60688 2 3 tcp 1040 ------- 1 1.0 4.0 2 3
+ 0.60688 3 4 tcp 1040 ------- 1 1.0 4.0 2 3
- 0.60688 3 4 tcp 1040 ------- 1 1.0 4.0 2 3
r 0.61688 3 4 tcp 1040 ------- 1 1.0 4.0 1 2
+ 0.61688 4 5 ack 40 ------- 1 4.0 1.0 1 4
- 0.61688 4 5 ack 40 ------- 1 4.0 1.0 1 4
r 0.6252 3 4 tcp 1040 ------- 1 1.0 4.0 2 3
+ 0.6252 4 5 ack 40 ------- 1 4.0 1.0 2 5
- 0.6252 4 5 ack 40 ------- 1 4.0 1.0 2 5
r 0.6272 4 5 ack 40 ------- 1 4.0 1.0 1 4
+ 0.6272 5 0 ack 40 ------- 1 4.0 1.0 1 4
- 0.6272 5 0 ack 40 ------- 1 4.0 1.0 1 4
r 0.63552 4 5 ack 40 ------- 1 4.0 1.0 2 5
+ 0.63552 5 0 ack 40 ------- 1 4.0 1.0 2 5
- 0.63552 5 0 ack 40 ------- 1 4.0 1.0 2 5
r 0.63752 5 0 ack 40 ------- 1 4.0 1.0 1 4
+ 0.63752 0 1 ack 40 ------- 1 4.0 1.0 1 4
- 0.63752 0 1 ack 40 ------- 1 4.0 1.0 1 4
r 0.64584 5 0 ack 40 ------- 1 4.0 1.0 2 5
+ 0.64584 0 1 ack 40 ------- 1 4.0 1.0 2 5
- 0.64584 0 1 ack 40 ------- 1 4.0 1.0 2 5
r 0.64784 0 1 ack 40 ------- 1 4.0 1.0 1 4
+ 0.64784 1 2 tcp 1040 ------- 1 1.0 4.0 3 6
- 0.64784 1 2 tcp 1040 ------- 1 1.0 4.0 3 6
+ 0.64784 1 2 tcp 1040 ------- 1 1.0 4.0 4 7
r 0.65616 0 1 ack 40 ------- 1 4.0 1.0 2 5
+ 0.65616 1 2 tcp 1040 ------- 1 1.0 4.0 5 8
+ 0.65616 1 2 tcp 1040 ------- 1 1.0 4.0 6 9
- 0.65616 1 2 tcp 1040 ------- 1 1.0 4.0 4 7
- 0.66448 1 2 tcp 1040 ------- 1 1.0 4.0 5 8
r 0.66616 1 2 tcp 1040 ------- 1 1.0 4.0 3 6
+ 0.66616 2 3 tcp 1040 ------- 1 1.0 4.0 3 6
- 0.66616 2 3 tcp 1040 ------- 1 1.0 4.0 3 6
- 0.6728 1 2 tcp 1040 ------- 1 1.0 4.0 6 9
r 0.67448 1 2 tcp 1040 ------- 1 1.0 4.0 4 7
+ 0.67448 2 3 tcp 1040 ------- 1 1.0 4.0 4 7
- 0.67448 2 3 tcp 1040 ------- 1 1.0 4.0 4 7
r 0.6828 1 2 tcp 1040 ------- 1 1.0 4.0 5 8
+ 0.6828 2 3 tcp 1040 ------- 1 1.0 4.0 5 8
- 0.6828 2 3 tcp 1040 ------- 1 1.0 4.0 5 8
r 0.68448 2 3 tcp 1040 ------- 1 1.0 4.0 3 6
+ 0.68448 3 4 tcp 1040 ------- 1 1.0 4.0 3 6
- 0.68448 3 4 tcp 1040 ------- 1 1.0 4.0 3 6
r 0.69112 1 2 tcp 1040 ------- 1 1.0 4.0 6 9
+ 0.69112 2 3 tcp 1040 ------- 1 1.0 4.0 6 9
- 0.69112 2 3 tcp 1040 ------- 1 1.0 4.0 6 9
r 0.6928 2 3 tcp 1040 ------- 1 1.0 4.0 4 7
+ 0.6928 3 4 tcp 1040 ------- 1 1.0 4.0 4 7
- 0.6928 3 4 tcp 1040 ------- 1 1.0 4.0 4 7
r 0.70112 2 3 tcp 1040 ------- 1 1.0 4.0 5 8
+ 0.70112 3 4 tcp 1040 ------- 1 1.0 4.0 5 8
- 0.70112 3 4 tcp 1040 ------- 1 1.0 4.0 5 8
r 0.7028 3 4 tcp 1040 ------- 1 1.0 4.0 3 6
+ 0.7028 4 5 ack 40 ------- 1 4.0 1.0 3 10
- 0.7028 4 5 ack 40 ------- 1 4.0 1.0 3 10
r 0.70944 2 3 tcp 1040 ------- 1 1.0 4.0 6 9
+ 0.70944 3 4 tcp 1040 ------- 1 1.0 4.0 6 9
- 0.70944 3 4 tcp 1040 ------- 1 1.0 4.0 6 9
r 0.71112 3 4 tcp 1040 ------- 1 1.0 4.0 4 7
+ 0.71112 4 5 ack 40 ------- 1 4.0 1.0 4 11
- 0.71112 4 5 ack 40 ------- 1 4.0 1.0 4 11
r 0.71312 4 5 ack 40 ------- 1 4.0 1.0 3 10
+ 0.71312 5 0 ack 40 ------- 1 4.0 1.0 3 10
- 0.71312 5 0 ack 40 ------- 1 4.0 1.0 3 10
r 0.71944 3 4 tcp 1040 ------- 1 1.0 4.0 5 8
+ 0.71944 4 5 ack 40 ------- 1 4.0 1.0 5 12
- 0.71944 4 5 ack 40 ------- 1 4.0 1.0 5 12
r 0.72144 4 5 ack 40 ------- 1 4.0 1.0 4 11
+ 0.72144 5 0 ack 40 ------- 1 4.0 1.0 4 11
- 0.72144 5 0 ack 40 ------- 1 4.0 1.0 4 11
r 0.72344 5 0 ack 40 ------- 1 4.0 1.0 3 10
+ 0.72344 0 1 ack 40 ------- 1 4.0 1.0 3 10
- 0.72344 0 1 ack 40 ------- 1 4.0 1.0 3 10
r 0.72776 3 4 tcp 1040 ------- 1 1.0 4.0 6 9
+ 0.72776 4 5 ack 40 ------- 1 4.0 1.0 6 13
- 0.72776 4 5 ack 40 ------- 1 4.0 1.0 6 13
r 0.72976 4 5 ack 40 ------- 1 4.0 1.0 5 12
+ 0.72976 5 0 ack 40 ------- 1 4.0 1.0 5 12
- 0.72976 5 0 ack 40 ------- 1 4.0 1.0 5 12
r 0.73176 5 0 ack 40 ------- 1 4.0 1.0 4 11
+ 0.73176 0 1 ack 40 ------- 1 4.0 1.0 4 11
- 0.73176 0 1 ack 40 ------- 1 4.0 1.0 4 11
r 0.73376 0 1 ack 40 ------- 1 4.0 1.0 3 10
+ 0.73376 1 2 tcp 1040 ------- 1 1.0 4.0 7 14
- 0.73376 1 2 tcp 1040 ------- 1 1.0 4.0 7 14
+ 0.73376 1 2 tcp 1040 ------- 1 1.0 4.0 8 15
r 0.73808 4 5 ack 40 ------- 1 4.0 1.0 6 13
+ 0.73808 5 0 ack 40 ------- 1 4.0 1.0 6 13
- 0.73808 5 0 ack 40 ------- 1 4.0 1.0 6 13
r 0.74008 5 0 ack 40 ------- 1 4.0 1.0 5 12
+ 0.74008 0 1 ack 40 ------- 1 4.0 1.0 5 12
- 0.74008 0 1 ack 40 ------- 1 4.0 1.0 5 12
r 0.74208 0 1 ack 40 ------- 1 4.0 1.0 4 11
+ 0.74208 1 2 tcp 1040 ------- 1 1.0 4.0 9 16
+ 0.74208 1 2 tcp 1040 ------- 1 1.0 4.0 10 17
- 0.74208 1 2 tcp 1040 ------- 1 1.0 4.0 8 15
r 0.7484 5 0 ack 40 ------- 1 4.0 1.0 6 13
+ 0.7484 0 1 ack 40 ------- 1 4.0 1.0 6 13
- 0.7484 0 1 ack 40 ------- 1 4.0 1.0 6 13
r 0.7504 0 1 ack 40 ------- 1 4.0 1.0 5 12
+ 0.7504 1 2 tcp 1040 ------- 1 1.0 4.0 11 18
+ 0.7504 1 2 tcp 1040 ------- 1 1.0 4.0 12 19
- 0.7504 1 2 tcp 1040 ------- 1 1.0 4.0 9 16
r 0.75208 1 2 tcp 1040 ------- 1 1.0 4.0 7 14
+ 0.75208 2 3 tcp 1040 ------- 1 1.0 4.0 7 14
- 0.75208 2 3 tcp 1040 ------- 1 1.0 4.0 7 14
r 0.75872 0 1 ack 40 ------- 1 4.0 1.0 6 13
+ 0.75872 1 2 tcp 1040 ------- 1 1.0 4.0 13 20
+ 0.75872 1 2 tcp 1040 ------- 1 1.0 4.0 14 21
- 0.75872 1 2 tcp 1040 ------- 1 1.0 4.0 10 17
r 0.7604 1 2 tcp 1040 ------- 1 1.0 4.0 8 15
+ 0.7604 2 3 tcp 1040 ------- 1 1.0 4.0 8 15
- 0.7604 2 3 tcp 1040 ------- 1 1.0 4.0 8 15
- 0.76704 1 2 tcp 1040 ------- 1 1.0 4.0 11 18
r 0.76872 1 2 tcp 1040 ------- 1 1.0 4.0 9 16
+ 0.76872 2 3 tcp 1040 ------- 1 1.0 4.0 9 16
- 0.76872 2 3 tcp 1040 ------- 1 1.0 4.0 9 16
r 0.7704 2 3 tcp 1040 ------- 1 1.0 4.0 7 14
+ 0.7704 3 4 tcp 1040 ------- 1 1.0 4.0 7 14
- 0.7704 3 4 tcp 1040 ------- 1 1.0 4.0 7 14
- 0.77536 1 2 tcp 1040 ------- 1 1.0 4.0 12 19
r 0.77704 1 2 tcp 1040 ------- 1 1.0 4.0 10 17
+ 0.77704 2 3 tcp 1040 ------- 1 1.0 4.0 10 17
- 0.77704 2 3 tcp 1040 ------- 1 1.0 4.0 10 17
r 0.77872 2 3 tcp 1040 ------- 1 1.0 4.0 8 15
+ 0.77872 3 4 tcp 1040 ------- 1 1.0 4.0 8 15
- 0.77872 3 4 tcp 1040 ------- 1 1.0 4.0 8 15
- 0.78368 1 2 tcp 1040 ------- 1 1.0 4.0 13 20
r 0.78536 1 2 tcp 1040 ------- 1 1.0 4.0 11 18
+ 0.78536 2 3 tcp 1040 ------- 1 1.0 4.0 11 18
- 0.78536 2 3 tcp 1040 ------- 1 1.0 4.0 11 18
r 0.78704 2 3 tcp 1040 ------- 1 1.0 4.0 9 16
+ 0.78704 3 4 tcp 1040 ------- 1 1.0 4.0 9 16
- 0.78704 3 4 tcp 1040 ------- 1 1.0 4.0 9 16
r 0.78872 3 4 tcp 1040 ------- 1 1.0 4.0 7 14
+ 0.78872 4 5 ack 40 ------- 1 4.0 1.0 7 22
- 0.78872 4 5 ack 40 ------- 1 4.0 1.0 7 22
- 0.792 1 2 tcp 1040 ------- 1 1.0 4.0 14 21
r 0.79368 1 2 tcp 1040 ------- 1 1.0 4.0 12 19
+ 0.79368 2 3 tcp 1040 ------- 1 1.0 4.0 12 19
- 0.79368 2 3 tcp 1040 ------- 1 1.0 4.0 12 19
r 0.79536 2 3 tcp 1040 ------- 1 1.0 4.0 10 17
+ 0.79536 3 4 tcp 1040 ------- 1 1.0 4.0 10 17
- 0.79536 3 4 tcp 1040 ------- 1 1.0 4.0 10 17
r 0.79704 3 4 tcp 1040 ------- 1 1.0 4.0 8 15
+ 0.79704 4 5 ack 40 ------- 1 4.0 1.0 8 23
- 0.79704 4 5 ack 40 ------- 1 4.0 1.0 8 23
r 0.79904 4 5 ack 40 ------- 1 4.0 1.0 7 22
+ 0.79904 5 0 ack 40 ------- 1 4.0 1.0 7 22
- 0.79904 5 0 ack 40 ------- 1 4.0 1.0 7 22
r 0.802 1 2 tcp 1040 ------- 1 1.0 4.0 13 20
+ 0.802 2 3 tcp 1040 ------- 1 1.0 4.0 13 20
- 0.802 2 3 tcp 1040 ------- 1 1.0 4.0 13 20
r 0.80368 2 3 tcp 1040 ------- 1 1.0 4.0 11 18
+ 0.80368 3 4 tcp 1040 ------- 1 1.0 4.0 11 18
- 0.80368 3 4 tcp 1040 ------- 1 1.0 4.0 11 18
r 0.80536 3 4 tcp 1040 ------- 1 1.0 4.0 9 16
+ 0.80536 4 5 ack 40 ------- 1 4.0 1.0 9 24
- 0.80536 4 5 ack 40 ------- 1 4.0 1.0 9 24
r 0.80736 4 5 ack 40 ------- 1 4.0 1.0 8 23
+ 0.80736 5 0 ack 40 ------- 1 4.0 1.0 8 23
- 0.80736 5 0 ack 40 ------- 1 4.0 1.0 8 23
r 0.80936 5 0 ack 40 ------- 1 4.0 1.0 7 22
+ 0.80936 0 1 ack 40 ------- 1 4.0 1.0 7 22
- 0.80936 0 1 ack 40 ------- 1 4.0 1.0 7 22
r 0.81032 1 2 tcp 1040 ------- 1 1.0 4.0 14 21
+ 0.81032 2 3 tcp 1040 ------- 1 1.0 4.0 14 21
- 0.81032 2 3 tcp 1040 ------- 1 1.0 4.0 14 21
r 0.812 2 3 tcp 1040 ------- 1 1.0 4.0 12 19
+ 0.812 3 4 tcp 1040 ------- 1 1.0 4.0 12 19
- 0.812 3 4 tcp 1040 ------- 1 1.0 4.0 12 19
r 0.81368 3 4 tcp 1040 ------- 1 1.0 4.0 10 17
+ 0.81368 4 5 ack 40 ------- 1 4.0 1.0 10 25
- 0.81368 4 5 ack 40 ------- 1 4.0 1.0 10 25
r 0.81568 4 5 ack 40 ------- 1 4.0 1.0 9 24
+ 0.81568 5 0 ack 40 ------- 1 4.0 1.0 9 24
- 0.81568 5 0 ack 40 ------- 1 4.0 1.0 9 24
r 0.81768 5 0 ack 40 ------- 1 4.0 1.0 8 23
+ 0.81768 0 1 ack 40 ------- 1 4.0 1.0 8 23
- 0.81768 0 1 ack 40 ------- 1 4.0 1.0 8 23
r 0.81968 0 1 ack 40 ------- 1 4.0 1.0 7 22
+ 0.81968 1 2 tcp 1040 ------- 1 1.0 4.0 15 26
- 0.81968 1 2 tcp 1040 ------- 1 1.0 4.0 15 26
+ 0.81968 1 2 tcp 1040 ------- 1 1.0 4.0 16 27
r 0.82032 2 3 tcp 1040 ------- 1 1.0 4.0 13 20
+ 0.82032 3 4 tcp 1040 ------- 1 1.0 4.0 13 20
- 0.82032 3 4 tcp 1040 ------- 1 1.0 4.0 13 20
r 0.822 3 4 tcp 1040 ------- 1 1.0 4.0 11 18
+ 0.822 4 5 ack 40 ------- 1 4.0 1.0 11 28
- 0.822 4 5 ack 40 ------- 1 4.0 1.0 11 28
r 0.824 4 5 ack 40 ------- 1 4.0 1.0 10 25
+ 0.824 5 0 ack 40 ------- 1 4.0 1.0 10 25
- 0.824 5 0 ack 40 ------- 1 4.0 1.0 10 25
r 0.826 5 0 ack 40 ------- 1 4.0 1.0 9 24
+ 0.826 0 1 ack 40 ------- 1 4.0 1.0 9 24
- 0.826 0 1 ack 40 ------- 1 4.0 1.0 9 24
r 0.828 0 1 ack 40 ------- 1 4.0 1.0 8 23
+ 0.828 1 2 tcp 1040 ------- 1 1.0 4.0 17 29
+ 0.828 1 2 tcp 1040 ------- 1 1.0 4.0 18 30
- 0.828 1 2 tcp 1040 ------- 1 1.0 4.0 16 27
r 0.82864 2 3 tcp 1040 ------- 1 1.0 4.0 14 21
+ 0.82864 3 4 tcp 1040 ------- 1 1.0 4.0 14 21
- 0.82864 3 4 tcp 1040 ------- 1 1.0 4.0 14 21
r 0.83032 3 4 tcp 1040 ------- 1 1.0 4.0 12 19
+ 0.83032 4 5 ack 40 ------- 1 4.0 1.0 12 31
- 0.83032 4 5 ack 40 ------- 1 4.0 1.0 12 31
r 0.83232 4 5 ack 40 ------- 1 4.0 1.0 11 28
+ 0.83232 5 0 ack 40 ------- 1 4.0 1.0 11 28
- 0.83232 5 0 ack 40 ------- 1 4.0 1.0 11 28
r 0.83432 5 0 ack 40 ------- 1 4.0 1.0 10 25
+ 0.83432 0 1 ack 40 ------- 1 4.0 1.0 10 25
- 0.83432 0 1 ack 40 ------- 1 4.0 1.0 10 25
r 0.83632 0 1 ack 40 ------- 1 4.0 1.0 9 24
+ 0.83632 1 2 tcp 1040 ------- 1 1.0 4.0 19 32
+ 0.83632 1 2 tcp 1040 ------- 1 1.0 4.0 20 33
- 0.83632 1 2 tcp 1040 ------- 1 1.0 4.0 17 29
r 0.838 1 2 tcp 1040 ------- 1 1.0 4.0 15 26
+ 0.838 2 3 tcp 1040 ------- 1 1.0 4.0 15 26
- 0.838 2 3 tcp 1040 ------- 1 1.0 4.0 15 26
r 0.83864 3 4 tcp 1040 ------- 1 1.0 4.0 13 20
+ 0.83864 4 5 ack 40 ------- 1 4.0 1.0 13 34
- 0.83864 4 5 ack 40 ------- 1 4.0 1.0 13 34
r 0.84064 4 5 ack 40 ------- 1 4.0 1.0 12 31
+ 0.84064 5 0 ack 40 ------- 1 4.0 1.0 12 31
- 0.84064 5 0 ack 40 ------- 1 4.0 1.0 12 31
r 0.84264 5 0 ack 40 ------- 1 4.0 1.0 11 28
+ 0.84264 0 1 ack 40 ------- 1 4.0 1.0 11 28
- 0.84264 0 1 ack 40 ------- 1 4.0 1.0 11 28
r 0.84464 0 1 ack 40 ------- 1 4.0 1.0 10 25
+ 0.84464 1 2 tcp 1040 ------- 1 1.0 4.0 21 35
+ 0.84464 1 2 tcp 1040 ------- 1 1.0 4.0 22 36
- 0.84464 1 2 tcp 1040 ------- 1 1.0 4.0 18 30
r 0.84632 1 2 tcp 1040 ------- 1 1.0 4.0 16 27
+ 0.84632 2 3 tcp 1040 ------- 1 1.0 4.0 16 27
- 0.84632 2 3 tcp 1040 ------- 1 1.0 4.0 16 27
r 0.84696 3 4 tcp 1040 ------- 1 1.0 4.0 14 21
+ 0.84696 4 5 ack 40 ------- 1 4.0 1.0 14 37
- 0.84696 4 5 ack 40 ------- 1 4.0 1.0 14 37
r 0.84896 4 5 ack 40 ------- 1 4.0 1.0 13 34
+ 0.84896 5 0 ack 40 ------- 1 4.0 1.0 13 34
- 0.84896 5 0 ack 40 ------- 1 4.0 1.0 13 34
r 0.85096 5 0 ack 40 ------- 1 4.0 1.0 12 31
+ 0.85096 0 1 ack 40 ------- 1 4.0 1.0 12 31
- 0.85096 0 1 ack 40 ------- 1 4.0 1.0 12 31
r 0.85296 0 1 ack 40 ------- 1 4.0 1.0 11 28
+ 0.85296 1 2 tcp 1040 ------- 1 1.0 4.0 23 38
+ 0.85296 1 2 tcp 1040 ------- 1 1.0 4.0 24 39
- 0.85296 1 2 tcp 1040 ------- 1 1.0 4.0 19 32
r 0.85464 1 2 tcp 1040 ------- 1 1.0 4.0 17 29
+ 0.85464 2 3 tcp 1040 ------- 1 1.0 4.0 17 29
- 0.85464 2 3 tcp 1040 ------- 1 1.0 4.0 17 29
r 0.85632 2 3 tcp 1040 ------- 1 1.0 4.0 15 26
+ 0.85632 3 4 tcp 1040 ------- 1 1.0 4.0 15 26
- 0.85632 3 4 tcp 1040 ------- 1 1.0 4.0 15 26
r 0.85728 4 5 ack 40 ------- 1 4.0 1.0 14 37
+ 0.85728 5 0 ack 40 ------- 1 4.0 1.0 14 37
- 0.85728 5 0 ack 40 ------- 1 4.0 1.0 14 37
r 0.85928 5 0 ack 40 ------- 1 4.0 1.0 13 34
+ 0.85928 0 1 ack 40 ------- 1 4.0 1.0 13 34
- 0.85928 0 1 ack 40 ------- 1 4.0 1.0 13 34
r 0.86128 0 1 ack 40 ------- 1 4.0 1.0 12 31
+ 0.86128 1 2 tcp 1040 ------- 1 1.0 4.0 25 40
+ 0.86128 1 2 tcp 1040 ------- 1 1.0 4.0 26 41
- 0.86128 1 2 tcp 1040 ------- 1 1.0 4.0 20 33
r 0.86296 1 2 tcp 1040 ------- 1 1.0 4.0 18 30
+ 0.86296 2 3 tcp 1040 ------- 1 1.0 4.0 18 30
- 0.86296 2 3 tcp 1040 ------- 1 1.0 4.0 18 30
r 0.86464 2 3 tcp 1040 ------- 1 1.0 4.0 16 27
+ 0.86464 3 4 tcp 1040 ------- 1 1.0 4.0 16 27
- 0.86464 3 4 tcp 1040 ------- 1 1.0 4.0 16 27
r 0.8676 5 0 ack 40 ------- 1 4.0 1.0 14 37
+ 0.8676 0 1 ack 40 ------- 1 4.0 1.0 14 37
- 0.8676 0 1 ack 40 ------- 1 4.0 1.0 14 37
r 0.8696 0 1 ack 40 ------- 1 4.0 1.0 13 34
+ 0.8696 1 2 tcp 1040 ------- 1 1.0 4.0 27 42
+ 0.8696 1 2 tcp 1040 ------- 1 1.0 4.0 28 43
- 0.8696 1 2 tcp 1040 ------- 1 1.0 4.0 21 35
r 0.87128 1 2 tcp 1040 ------- 1 1.0 4.0 19 32
+ 0.87128 2 3 tcp 1040 ------- 1 1.0 4.0 19 32
- 0.87128 2 3 tcp 1040 ------- 1 1.0 4.0 19 32
r 0.87296 2 3 tcp 1040 ------- 1 1.0 4.0 17 29
+ 0.87296 3 4 tcp 1040 ------- 1 1.0 4.0 17 29
- 0.87296 3 4 tcp 1040 ------- 1 1.0 4.0 17 29
r 0.87464 3 4 tcp 1040 ------- 1 1.0 4.0 15 26
+ 0.87464 4 5 ack 40 ------- 1 4.0 1.0 15 44
- 0.87464 4 5 ack 40 ------- 1 4.0 1.0 15 44
r 0.87792 0 1 ack 40 ------- 1 4.0 1.0 14 37
+ 0.87792 1 2 tcp 1040 ------- 1 1.0 4.0 29 45
+ 0.87792 1 2 tcp 1040 ------- 1 1.0 4.0 30 46
- 0.87792 1 2 tcp 1040 ------- 1 1.0 4.0 22 36
r 0.8796 1 2 tcp 1040 ------- 1 1.0 4.0 20 33
+ 0.8796 2 3 tcp 1040 ------- 1 1.0 4.0 20 33
- 0.8796 2 3 tcp 1040 ------- 1 1.0 4.0 20 33
r 0.88128 2 3 tcp 1040 ------- 1 1.0 4.0 18 30
+ 0.88128 3 4 tcp 1040 ------- 1 1.0 4.0 18 30
- 0.88128 3 4 tcp 1040 ------- 1 1.0 4.0 18 30
r 0.88296 3 4 tcp 1040 ------- 1 1.0 4.0 16 27
+ 0.88296 4 5 ack 40 ------- 1 4.0 1.0 16 47
- 0.88296 4 5 ack 40 ------- 1 4.0 1.0 16 47
r 0.88496 4 5 ack 40 ------- 1 4.0 1.0 15 44
+ 0.88496 5 0 ack 40 ------- 1 4.0 1.0 15 44
- 0.88496 5 0 ack 40 ------- 1 4.0 1.0 15 44
- 0.88624 1 2 tcp 1040 ------- 1 1.0 4.0 23 38
r 0.88792 1 2 tcp 1040 ------- 1 1.0 4.0 21 35
+ 0.88792 2 3 tcp 1040 ------- 1 1.0 4.0 21 35
- 0.88792 2 3 tcp 1040 ------- 1 1.0 4.0 21 35
r 0.8896 2 3 tcp 1040 ------- 1 1.0 4.0 19 32
+ 0.8896 3 4 tcp 1040 ------- 1 1.0 4.0 19 32
- 0.8896 3 4 tcp 1040 ------- 1 1.0 4.0 19 32
r 0.89128 3 4 tcp 1040 ------- 1 1.0 4.0 17 29
+ 0.89128 4 5 ack 40 ------- 1 4.0 1.0 17 48
- 0.89128 4 5 ack 40 ------- 1 4.0 1.0 17 48
r 0.89328 4 5 ack 40 ------- 1 4.0 1.0 16 47
+ 0.89328 5 0 ack 40 ------- 1 4.0 1.0 16 47
- 0.89328 5 0 ack 40 ------- 1 4.0 1.0 16 47
- 0.89456 1 2 tcp 1040 ------- 1 1.0 4.0 24 39
r 0.89528 5 0 ack 40 ------- 1 4.0 1.0 15 44
+ 0.89528 0 1 ack 40 ------- 1 4.0 1.0 15 44
- 0.89528 0 1 ack 40 ------- 1 4.0 1.0 15 44
r 0.89624 1 2 tcp 1040 ------- 1 1.0 4.0 22 36
+ 0.89624 2 3 tcp 1040 ------- 1 1.0 4.0 22 36
- 0.89624 2 3 tcp 1040 ------- 1 1.0 4.0 22 36
r 0.89792 2 3 tcp 1040 ------- 1 1.0 4.0 20 33
+ 0.89792 3 4 tcp 1040 ------- 1 1.0 4.0 20 33
- 0.89792 3 4 tcp 1040 ------- 1 1.0 4.0 20 33
r 0.8996 3 4 tcp 1040 ------- 1 1.0 4.0 18 30
+ 0.8996 4 5 ack 40 ------- 1 4.0 1.0 18 49
- 0.8996 4 5 ack 40 ------- 1 4.0 1.0 18 49
r 0.9016 4 5 ack 40 ------- 1 4.0 1.0 17 48
+ 0.9016 5 0 ack 40 ------- 1 4.0 1.0 17 48
- 0.9016 5 0 ack 40 ------- 1 4.0 1.0 17 48
- 0.90288 1 2 tcp 1040 ------- 1 1.0 4.0 25 40
r 0.9036 5 0 ack 40 ------- 1 4.0 1.0 16 47
+ 0.9036 0 1 ack 40 ------- 1 4.0 1.0 16 47
- 0.9036 0 1 ack 40 ------- 1 4.0 1.0 16 47
r 0.90456 1 2 tcp 1040 ------- 1 1.0 4.0 23 38
+ 0.90456 2 3 tcp 1040 ------- 1 1.0 4.0 23 38
- 0.90456 2 3 tcp 1040 ------- 1 1.0 4.0 23 38
r 0.9056 0 1 ack 40 ------- 1 4.0 1.0 15 44
+ 0.9056 1 2 tcp 1040 ------- 1 1.0 4.0 31 50
+ 0.9056 1 2 tcp 1040 ------- 1 1.0 4.0 32 51
r 0.90624 2 3 tcp 1040 ------- 1 1.0 4.0 21 35
+ 0.90624 3 4 tcp 1040 ------- 1 1.0 4.0 21 35
- 0.90624 3 4 tcp 1040 ------- 1 1.0 4.0 21 35
r 0.90792 3 4 tcp 1040 ------- 1 1.0 4.0 19 32
+ 0.90792 4 5 ack 40 ------- 1 4.0 1.0 19 52
- 0.90792 4 5 ack 40 ------- 1 4.0 1.0 19 52
r 0.90992 4 5 ack 40 ------- 1 4.0 1.0 18 49
+ 0.90992 5 0 ack 40 ------- 1 4.0 1.0 18 49
- 0.90992 5 0 ack 40 ------- 1 4.0 1.0 18 49
- 0.9112 1 2 tcp 1040 ------- 1 1.0 4.0 26 41
r 0.91192 5 0 ack 40 ------- 1 4.0 1.0 17 48
+ 0.91192 0 1 ack 40 ------- 1 4.0 1.0 17 48
- 0.91192 0 1 ack 40 ------- 1 4.0 1.0 17 48
r 0.91288 1 2 tcp 1040 ------- 1 1.0 4.0 24 39
+ 0.91288 2 3 tcp 1040 ------- 1 1.0 4.0 24 39
- 0.91288 2 3 tcp 1040 ------- 1 1.0 4.0 24 39
r 0.91392 0 1 ack 40 ------- 1 4.0 1.0 16 47
+ 0.91392 1 2 tcp 1040 ------- 1 1.0 4.0 33 53
+ 0.91392 1 2 tcp 1040 ------- 1 1.0 4.0 34 54
r 0.91456 2 3 tcp 1040 ------- 1 1.0 4.0 22 36
+ 0.91456 3 4 tcp 1040 ------- 1 1.0 4.0 22 36
- 0.91456 3 4 tcp 1040 ------- 1 1.0 4.0 22 36
r 0.91624 3 4 tcp 1040 ------- 1 1.0 4.0 20 33
+ 0.91624 4 5 ack 40 ------- 1 4.0 1.0 20 55
- 0.91624 4 5 ack 40 ------- 1 4.0 1.0 20 55
r 0.91824 4 5 ack 40 ------- 1 4.0 1.0 19 52
+ 0.91824 5 0 ack 40 ------- 1 4.0 1.0 19 52
- 0.91824 5 0 ack 40 ------- 1 4.0 1.0 19 52
- 0.91952 1 2 tcp 1040 ------- 1 1.0 4.0 27 42
r 0.92024 5 0 ack 40 ------- 1 4.0 1.0 18 49
+ 0.92024 0 1 ack 40 ------- 1 4.0 1.0 18 49
- 0.92024 0 1 ack 40 ------- 1 4.0 1.0 18 49
r 0.9212 1 2 tcp 1040 ------- 1 1.0 4.0 25 40
+ 0.9212 2 3 tcp 1040 ------- 1 1.0 4.0 25 40
- 0.9212 2 3 tcp 1040 ------- 1 1.0 4.0 25 40
r 0.92224 0 1 ack 40 ------- 1 4.0 1.0 17 48
+ 0.92224 1 2 tcp 1040 ------- 1 1.0 4.0 35 56
+ 0.92224 1 2 tcp 1040 ------- 1 1.0 4.0 36 57
r 0.92288 2 3 tcp 1040 ------- 1 1.0 4.0 23 38
+ 0.92288 3 4 tcp 1040 ------- 1 1.0 4.0 23 38
- 0.92288 3 4 tcp 1040 ------- 1 1.0 4.0 23 38
r 0.92456 3 4 tcp 1040 ------- 1 1.0 4.0 21 35
+ 0.92456 4 5 ack 40 ------- 1 4.0 1.0 21 58
- 0.92456 4 5 ack 40 ------- 1 4.0 1.0 21 58
r 0.92656 4 5 ack 40 ------- 1 4.0 1.0 20 55
+ 0.92656 5 0 ack 40 ------- 1 4.0 1.0 20 55
- 0.92656 5 0 ack 40 ------- 1 4.0 1.0 20 55
- 0.92784 1 2 tcp 1040 ------- 1 1.0 4.0 28 43
r 0.92856 5 0 ack 40 ------- 1 4.0 1.0 19 52
+ 0.92856 0 1 ack 40 ------- 1 4.0 1.0 19 52
- 0.92856 0 1 ack 40 ------- 1 4.0 1.0 19 52
r 0.92952 1 2 tcp 1040 ------- 1 1.0 4.0 26 41
+ 0.92952 2 3 tcp 1040 ------- 1 1.0 4.0 26 41
- 0.92952 2 3 tcp 1040 ------- 1 1.0 4.0 26 41
r 0.93056 0 1 ack 40 ------- 1 4.0 1.0 18 49
+ 0.93056 1 2 tcp 1040 ------- 1 1.0 4.0 37 59
+ 0.93056 1 2 tcp 1040 ------- 1 1.0 4.0 38 60
d 0.93056 1 2 tcp 1040 ------- 1 1.0 4.0 38 60
r 0.9312 2 3 tcp 1040 ------- 1 1.0 4.0 24 39
+ 0.9312 3 4 tcp 1040 ------- 1 1.0 4.0 24 39
- 0.9312 3 4 tcp 1040 ------- 1 1.0 4.0 24 39
r 0.93288 3 4 tcp 1040 ------- 1 1.0 4.0 22 36
+ 0.93288 4 5 ack 40 ------- 1 4.0 1.0 22 61
- 0.93288 4 5 ack 40 ------- 1 4.0 1.0 22 61
r 0.93488 4 5 ack 40 ------- 1 4.0 1.0 21 58
+ 0.93488 5 0 ack 40 ------- 1 4.0 1.0 21 58
- 0.93488 5 0 ack 40 ------- 1 4.0 1.0 21 58
- 0.93616 1 2 tcp 1040 ------- 1 1.0 4.0 29 45
r 0.93688 5 0 ack 40 ------- 1 4.0 1.0 20 55
+ 0.93688 0 1 ack 40 ------- 1 4.0 1.0 20 55
- 0.93688 0 1 ack 40 ------- 1 4.0 1.0 20 55
r 0.93784 1 2 tcp 1040 ------- 1 1.0 4.0 27 42
+ 0.93784 2 3 tcp 1040 ------- 1 1.0 4.0 27 42
- 0.93784 2 3 tcp 1040 ------- 1 1.0 4.0 27 42
r 0.93888 0 1 ack 40 ------- 1 4.0 1.0 19 52
+ 0.93888 1 2 tcp 1040 ------- 1 1.0 4.0 39 62
r 0.93952 2 3 tcp 1040 ------- 1 1.0 4.0 25 40
+ 0.93952 3 4 tcp 1040 ------- 1 1.0 4.0 25 40
- 0.93952 3 4 tcp 1040 ------- 1 1.0 4.0 25 40
r 0.9412 3 4 tcp 1040 ------- 1 1.0 4.0 23 38
+ 0.9412 4 5 ack 40 ------- 1 4.0 1.0 23 63
- 0.9412 4 5 ack 40 ------- 1 4.0 1.0 23 63
r 0.9432 4 5 ack 40 ------- 1 4.0 1.0 22 61
+ 0.9432 5 0 ack 40 ------- 1 4.0 1.0 22 61
- 0.9432 5 0 ack 40 ------- 1 4.0 1.0 22 61
- 0.94448 1 2 tcp 1040 ------- 1 1.0 4.0 30 46
r 0.9452 5 0 ack 40 ------- 1 4.0 1.0 21 58
+ 0.9452 0 1 ack 40 ------- 1 4.0 1.0 21 58
- 0.9452 0 1 ack 40 ------- 1 4.0 1.0 21 58
r 0.94616 1 2 tcp 1040 ------- 1 1.0 4.0 28 43
+ 0.94616 2 3 tcp 1040 ------- 1 1.0 4.0 28 43
- 0.94616 2 3 tcp 1040 ------- 1 1.0 4.0 28 43
r 0.9472 0 1 ack 40 ------- 1 4.0 1.0 20 55
+ 0.9472 1 2 tcp 1040 ------- 1 1.0 4.0 40 64
r 0.94784 2 3 tcp 1040 ------- 1 1.0 4.0 26 41
+ 0.94784 3 4 tcp 1040 ------- 1 1.0 4.0 26 41
- 0.94784 3 4 tcp 1040 ------- 1 1.0 4.0 26 41
r 0.94952 3 4 tcp 1040 ------- 1 1.0 4.0 24 39
+ 0.94952 4 5 ack 40 ------- 1 4.0 1.0 24 65
- 0.94952 4 5 ack 40 ------- 1 4.0 1.0 24 65
r 0.95152 4 5 ack 40 ------- 1 4.0 1.0 23 63
+ 0.95152 5 0 ack 40 ------- 1 4.0 1.0 23 63
- 0.95152 5 0 ack 40 ------- 1 4.0 1.0 23 63
- 0.9528 1 2 tcp 1040 ------- 1 1.0 4.0 31 50
r 0.95352 5 0 ack 40 ------- 1 4.0 1.0 22 61
+ 0.95352 0 1 ack 40 ------- 1 4.0 1.0 22 61
- 0.95352 0 1 ack 40 ------- 1 4.0 1.0 22 61
r 0.95448 1 2 tcp 1040 ------- 1 1.0 4.0 29 45
+ 0.95448 2 3 tcp 1040 ------- 1 1.0 4.0 29 45
- 0.95448 2 3 tcp 1040 ------- 1 1.0 4.0 29 45
r 0.95552 0 1 ack 40 ------- 1 4.0 1.0 21 58
+ 0.95552 1 2 tcp 1040 ------- 1 1.0 4.0 41 66
r 0.95616 2 3 tcp 1040 ------- 1 1.0 4.0 27 42
+ 0.95616 3 4 tcp 1040 ------- 1 1.0 4.0 27 42
- 0.95616 3 4 tcp 1040 ------- 1 1.0 4.0 27 42
r 0.95784 3 4 tcp 1040 ------- 1 1.0 4.0 25 40
+ 0.95784 4 5 ack 40 ------- 1 4.0 1.0 25 67
- 0.95784 4 5 ack 40 ------- 1 4.0 1.0 25 67
r 0.95984 4 5 ack 40 ------- 1 4.0 1.0 24 65
+ 0.95984 5 0 ack 40 ------- 1 4.0 1.0 24 65
- 0.95984 5 0 ack 40 ------- 1 4.0 1.0 24 65
- 0.96112 1 2 tcp 1040 ------- 1 1.0 4.0 32 51
r 0.96184 5 0 ack 40 ------- 1 4.0 1.0 23 63
+ 0.96184 0 1 ack 40 ------- 1 4.0 1.0 23 63
- 0.96184 0 1 ack 40 ------- 1 4.0 1.0 23 63
r 0.9628 1 2 tcp 1040 ------- 1 1.0 4.0 30 46
+ 0.9628 2 3 tcp 1040 ------- 1 1.0 4.0 30 46
- 0.9628 2 3 tcp 1040 ------- 1 1.0 4.0 30 46
r 0.96384 0 1 ack 40 ------- 1 4.0 1.0 22 61
+ 0.96384 1 2 tcp 1040 ------- 1 1.0 4.0 42 68
r 0.96448 2 3 tcp 1040 ------- 1 1.0 4.0 28 43
+ 0.96448 3 4 tcp 1040 ------- 1 1.0 4.0 28 43
- 0.96448 3 4 tcp 1040 ------- 1 1.0 4.0 28 43
r 0.96616 3 4 tcp 1040 ------- 1 1.0 4.0 26 41
+ 0.96616 4 5 ack 40 ------- 1 4.0 1.0 26 69
- 0.96616 4 5 ack 40 ------- 1 4.0 1.0 26 69
r 0.96816 4 5 ack 40 ------- 1 4.0 1.0 25 67
+ 0.96816 5 0 ack 40 ------- 1 4.0 1.0 25 67
- 0.96816 5 0 ack 40 ------- 1 4.0 1.0 25 67
- 0.96944 1 2 tcp 1040 ------- 1 1.0 4.0 33 53
r 0.97016 5 0 ack 40 ------- 1 4.0 1.0 24 65
+ 0.97016 0 1 ack 40 ------- 1 4.0 1.0 24 65
- 0.97016 0 1 ack 40 ------- 1 4.0 1.0 24 65
r 0.97112 1 2 tcp 1040 ------- 1 1.0 4.0 31 50
+ 0.97112 2 3 tcp 1040 ------- 1 1.0 4.0 31 50
- 0.97112 2 3 tcp 1040 ------- 1 1.0 4.0 31 50
r 0.97216 0 1 ack 40 ------- 1 4.0 1.0 23 63
+ 0.97216 1 2 tcp 1040 ------- 1 1.0 4.0 43 70
r 0.9728 2 3 tcp 1040 ------- 1 1.0 4.0 29 45
+ 0.9728 3 4 tcp 1040 ------- 1 1.0 4.0 29 45
- 0.9728 3 4 tcp 1040 ------- 1 1.0 4.0 29 45
r 0.97448 3 4 tcp 1040 ------- 1 1.0 4.0 27 42
+ 0.97448 4 5 ack 40 ------- 1 4.0 1.0 27 71
- 0.97448 4 5 ack 40 ------- 1 4.0 1.0 27 71
r 0.97648 4 5 ack 40 ------- 1 4.0 1.0 26 69
+ 0.97648 5 0 ack 40 ------- 1 4.0 1.0 26 69
- 0.97648 5 0 ack 40 ------- 1 4.0 1.0 26 69
- 0.97776 1 2 tcp 1040 ------- 1 1.0 4.0 34 54
r 0.97848 5 0 ack 40 ------- 1 4.0 1.0 25 67
+ 0.97848 0 1 ack 40 ------- 1 4.0 1.0 25 67
- 0.97848 0 1 ack 40 ------- 1 4.0 1.0 25 67
r 0.97944 1 2 tcp 1040 ------- 1 1.0 4.0 32 51
+ 0.97944 2 3 tcp 1040 ------- 1 1.0 4.0 32 51
- 0.97944 2 3 tcp 1040 ------- 1 1.0 4.0 32 51
r 0.98048 0 1 ack 40 ------- 1 4.0 1.0 24 65
+ 0.98048 1 2 tcp 1040 ------- 1 1.0 4.0 44 72
r 0.98112 2 3 tcp 1040 ------- 1 1.0 4.0 30 46
+ 0.98112 3 4 tcp 1040 ------- 1 1.0 4.0 30 46
- 0.98112 3 4 tcp 1040 ------- 1 1.0 4.0 30 46
r 0.9828 3 4 tcp 1040 ------- 1 1.0 4.0 28 43
+ 0.9828 4 5 ack 40 ------- 1 4.0 1.0 28 73
- 0.9828 4 5 ack 40 ------- 1 4.0 1.0 28 73
r 0.9848 4 5 ack 40 ------- 1 4.0 1.0 27 71
+ 0.9848 5 0 ack 40 ------- 1 4.0 1.0 27 71
- 0.9848 5 0 ack 40 ------- 1 4.0 1.0 27 71
- 0.98608 1 2 tcp 1040 ------- 1 1.0 4.0 35 56
r 0.9868 5 0 ack 40 ------- 1 4.0 1.0 26 69
+ 0.9868 0 1 ack 40 ------- 1 4.0 1.0 26 69
- 0.9868 0 1 ack 40 ------- 1 4.0 1.0 26 69
r 0.98776 1 2 tcp 1040 ------- 1 1.0 4.0 33 53
+ 0.98776 2 3 tcp 1040 ------- 1 1.0 4.0 33 53
- 0.98776 2 3 tcp 1040 ------- 1 1.0 4.0 33 53
r 0.9888 0 1 ack 40 ------- 1 4.0 1.0 25 67
+ 0.9888 1 2 tcp 1040 ------- 1 1.0 4.0 45 74
r 0.98944 2 3 tcp 1040 ------- 1 1.0 4.0 31 50
+ 0.98944 3 4 tcp 1040 ------- 1 1.0 4.0 31 50
- 0.98944 3 4 tcp 1040 ------- 1 1.0 4.0 31 50
r 0.99112 3 4 tcp 1040 ------- 1 1.0 4.0 29 45
+ 0.99112 4 5 ack 40 ------- 1 4.0 1.0 29 75
- 0.99112 4 5 ack 40 ------- 1 4.0 1.0 29 75
r 0.99312 4 5 ack 40 ------- 1 4.0 1.0 28 73
+ 0.99312 5 0 ack 40 ------- 1 4.0 1.0 28 73
- 0.99312 5 0 ack 40 ------- 1 4.0 1.0 28 73
- 0.9944 1 2 tcp 1040 ------- 1 1.0 4.0 36 57
r 0.99512 5 0 ack 40 ------- 1 4.0 1.0 27 71
+ 0.99512 0 1 ack 40 ------- 1 4.0 1.0 27 71
- 0.99512 0 1 ack 40 ------- 1 4.0 1.0 27 71
r 0.99608 1 2 tcp 1040 ------- 1 1.0 4.0 34 54
+ 0.99608 2 3 tcp 1040 ------- 1 1.0 4.0 34 54
- 0.99608 2 3 tcp 1040 ------- 1 1.0 4.0 34 54
r 0.99712 0 1 ack 40 ------- 1 4.0 1.0 26 69
+ 0.99712 1 2 tcp 1040 ------- 1 1.0 4.0 46 76
r 0.99776 2 3 tcp 1040 ------- 1 1.0 4.0 32 51
+ 0.99776 3 4 tcp 1040 ------- 1 1.0 4.0 32 51
- 0.99776 3 4 tcp 1040 ------- 1 1.0 4.0 32 51
r 0.99944 3 4 tcp 1040 ------- 1 1.0 4.0 30 46
+ 0.99944 4 5 ack 40 ------- 1 4.0 1.0 30 77
- 0.99944 4 5 ack 40 ------- 1 4.0 1.0 30 77
r 1.00144 4 5 ack 40 ------- 1 4.0 1.0 29 75
+ 1.00144 5 0 ack 40 ------- 1 4.0 1.0 29 75
- 1.00144 5 0 ack 40 ------- 1 4.0 1.0 29 75
- 1.00272 1 2 tcp 1040 ------- 1 1.0 4.0 37 59
r 1.00344 5 0 ack 40 ------- 1 4.0 1.0 28 73
+ 1.00344 0 1 ack 40 ------- 1 4.0 1.0 28 73
- 1.00344 0 1 ack 40 ------- 1 4.0 1.0 28 73
r 1.0044 1 2 tcp 1040 ------- 1 1.0 4.0 35 56
+ 1.0044 2 3 tcp 1040 ------- 1 1.0 4.0 35 56
- 1.0044 2 3 tcp 1040 ------- 1 1.0 4.0 35 56
r 1.00544 0 1 ack 40 ------- 1 4.0 1.0 27 71
+ 1.00544 1 2 tcp 1040 ------- 1 1.0 4.0 47 78
r 1.00608 2 3 tcp 1040 ------- 1 1.0 4.0 33 53
+ 1.00608 3 4 tcp 1040 ------- 1 1.0 4.0 33 53
- 1.00608 3 4 tcp 1040 ------- 1 1.0 4.0 33 53
r 1.00776 3 4 tcp 1040 ------- 1 1.0 4.0 31 50
+ 1.00776 4 5 ack 40 ------- 1 4.0 1.0 31 79
- 1.00776 4 5 ack 40 ------- 1 4.0 1.0 31 79
r 1.00976 4 5 ack 40 ------- 1 4.0 1.0 30 77
+ 1.00976 5 0 ack 40 ------- 1 4.0 1.0 30 77
- 1.00976 5 0 ack 40 ------- 1 4.0 1.0 30 77
- 1.01104 1 2 tcp 1040 ------- 1 1.0 4.0 39 62
r 1.01176 5 0 ack 40 ------- 1 4.0 1.0 29 75
+ 1.01176 0 1 ack 40 ------- 1 4.0 1.0 29 75
- 1.01176 0 1 ack 40 ------- 1 4.0 1.0 29 75
r 1.01272 1 2 tcp 1040 ------- 1 1.0 4.0 36 57
+ 1.01272 2 3 tcp 1040 ------- 1 1.0 4.0 36 57
- 1.01272 2 3 tcp 1040 ------- 1 1.0 4.0 36 57
r 1.01376 0 1 ack 40 ------- 1 4.0 1.0 28 73
+ 1.01376 1 2 tcp 1040 ------- 1 1.0 4.0 48 80
r 1.0144 2 3 tcp 1040 ------- 1 1.0 4.0 34 54
+ 1.0144 3 4 tcp 1040 ------- 1 1.0 4.0 34 54
- 1.0144 3 4 tcp 1040 ------- 1 1.0 4.0 34 54
r 1.01608 3 4 tcp 1040 ------- 1 1.0 4.0 32 51
+ 1.01608 4 5 ack 40 ------- 1 4.0 1.0 32 81
- 1.01608 4 5 ack 40 ------- 1 4.0 1.0 32 81
r 1.01808 4 5 ack 40 ------- 1 4.0 1.0 31 79
+ 1.01808 5 0 ack 40 ------- 1 4.0 1.0 31 79
- 1.01808 5 0 ack 40 ------- 1 4.0 1.0 31 79
- 1.01936 1 2 tcp 1040 ------- 1 1.0 4.0 40 64
r 1.02008 5 0 ack 40 ------- 1 4.0 1.0 30 77
+ 1.02008 0 1 ack 40 ------- 1 4.0 1.0 30 77
- 1.02008 0 1 ack 40 ------- 1 4.0 1.0 30 77
r 1.02104 1 2 tcp 1040 ------- 1 1.0 4.0 37 59
+ 1.02104 2 3 tcp 1040 ------- 1 1.0 4.0 37 59
- 1.02104 2 3 tcp 1040 ------- 1 1.0 4.0 37 59
r 1.02208 0 1 ack 40 ------- 1 4.0 1.0 29 75
+ 1.02208 1 2 tcp 1040 ------- 1 1.0 4.0 49 82
r 1.02272 2 3 tcp 1040 ------- 1 1.0 4.0 35 56
+ 1.02272 3 4 tcp 1040 ------- 1 1.0 4.0 35 56
- 1.02272 3 4 tcp 1040 ------- 1 1.0 4.0 35 56
r 1.0244 3 4 tcp 1040 ------- 1 1.0 4.0 33 53
+ 1.0244 4 5 ack 40 ------- 1 4.0 1.0 33 83
- 1.0244 4 5 ack 40 ------- 1 4.0 1.0 33 83
r 1.0264 4 5 ack 40 ------- 1 4.0 1.0 32 81
+ 1.0264 5 0 ack 40 ------- 1 4.0 1.0 32 81
- 1.0264 5 0 ack 40 ------- 1 4.0 1.0 32 81
- 1.02768 1 2 tcp 1040 ------- 1 1.0 4.0 41 66
r 1.0284 5 0 ack 40 ------- 1 4.0 1.0 31 79
+ 1.0284 0 1 ack 40 ------- 1 4.0 1.0 31 79
- 1.0284 0 1 ack 40 ------- 1 4.0 1.0 31 79
r 1.02936 1 2 tcp 1040 ------- 1 1.0 4.0 39 62
+ 1.02936 2 3 tcp 1040 ------- 1 1.0 4.0 39 62
- 1.02936 2 3 tcp 1040 ------- 1 1.0 4.0 39 62
r 1.0304 0 1 ack 40 ------- 1 4.0 1.0 30 77
+ 1.0304 1 2 tcp 1040 ------- 1 1.0 4.0 50 84
r 1.03104 2 3 tcp 1040 ------- 1 1.0 4.0 36 57
+ 1.03104 3 4 tcp 1040 ------- 1 1.0 4.0 36 57
- 1.03104 3 4 tcp 1040 ------- 1 1.0 4.0 36 57
r 1.03272 3 4 tcp 1040 ------- 1 1.0 4.0 34 54
+ 1.03272 4 5 ack 40 ------- 1 4.0 1.0 34 85
- 1.03272 4 5 ack 40 ------- 1 4.0 1.0 34 85
r 1.03472 4 5 ack 40 ------- 1 4.0 1.0 33 83
+ 1.03472 5 0 ack 40 ------- 1 4.0 1.0 33 83
- 1.03472 5 0 ack 40 ------- 1 4.0 1.0 33 83
- 1.036 1 2 tcp 1040 ------- 1 1.0 4.0 42 68
r 1.03672 5 0 ack 40 ------- 1 4.0 1.0 32 81
+ 1.03672 0 1 ack 40 ------- 1 4.0 1.0 32 81
- 1.03672 0 1 ack 40 ------- 1 4.0 1.0 32 81
r 1.03768 1 2 tcp 1040 ------- 1 1.0 4.0 40 64