+ 0.5 1 0 tcp 40 ------- 1 1.0 5.0 0 0
- 0.5 1 0 tcp 40 ------- 1 1.0 5.0 0 0
r 0.51032 1 0 tcp 40 ------- 1 1.0 5.0 0 0
+ 0.51032 0 5 tcp 40 ------- 1 1.0 5.0 0 0
- 0.51032 0 5 tcp 40 ------- 1 1.0 5.0 0 0
r 0.52064 0 5 tcp 40 ------- 1 1.0 5.0 0 0
+ 0.52064 5 0 ack 40 ------- 1 5.0 1.0 0 1
- 0.52064 5 0 ack 40 ------- 1 5.0 1.0 0 1
r 0.53096 5 0 ack 40 ------- 1 5.0 1.0 0 1
+ 0.53096 0 1 ack 40 ------- 1 5.0 1.0 0 1
- 0.53096 0 1 ack 40 ------- 1 5.0 1.0 0 1
r 0.54128 0 1 ack 40 ------- 1 5.0 1.0 0 1
+ 0.54128 1 0 tcp 1040 ------- 1 1.0 5.0 1 2
- 0.54128 1 0 tcp 1040 ------- 1 1.0 5.0 1 2
+ 0.54128 1 0 tcp 1040 ------- 1 1.0 5.0 2 3
- 0.5496 1 0 tcp 1040 ------- 1 1.0 5.0 2 3
r 0.5596 1 0 tcp 1040 ------- 1 1.0 5.0 1 2
+ 0.5596 0 5 tcp 1040 ------- 1 1.0 5.0 1 2
- 0.5596 0 5 tcp 1040 ------- 1 1.0 5.0 1 2
r 0.56792 1 0 tcp 1040 ------- 1 1.0 5.0 2 3
+ 0.56792 0 5 tcp 1040 ------- 1 1.0 5.0 2 3
- 0.56792 0 5 tcp 1040 ------- 1 1.0 5.0 2 3
r 0.57792 0 5 tcp 1040 ------- 1 1.0 5.0 1 2
+ 0.57792 5 0 ack 40 ------- 1 5.0 1.0 1 4
- 0.57792 5 0 ack 40 ------- 1 5.0 1.0 1 4
r 0.58624 0 5 tcp 1040 ------- 1 1.0 5.0 2 3
+ 0.58624 5 0 ack 40 ------- 1 5.0 1.0 2 5
- 0.58624 5 0 ack 40 ------- 1 5.0 1.0 2 5
r 0.58824 5 0 ack 40 ------- 1 5.0 1.0 1 4
+ 0.58824 0 1 ack 40 ------- 1 5.0 1.0 1 4
- 0.58824 0 1 ack 40 ------- 1 5.0 1.0 1 4
r 0.59656 5 0 ack 40 ------- 1 5.0 1.0 2 5
+ 0.59656 0 1 ack 40 ------- 1 5.0 1.0 2 5
- 0.59656 0 1 ack 40 ------- 1 5.0 1.0 2 5
r 0.59856 0 1 ack 40 ------- 1 5.0 1.0 1 4
+ 0.59856 1 0 tcp 1040 ------- 1 1.0 5.0 3 6
- 0.59856 1 0 tcp 1040 ------- 1 1.0 5.0 3 6
+ 0.59856 1 0 tcp 1040 ------- 1 1.0 5.0 4 7
r 0.60688 0 1 ack 40 ------- 1 5.0 1.0 2 5
+ 0.60688 1 0 tcp 1040 ------- 1 1.0 5.0 5 8
+ 0.60688 1 0 tcp 1040 ------- 1 1.0 5.0 6 9
- 0.60688 1 0 tcp 1040 ------- 1 1.0 5.0 4 7
- 0.6152 1 0 tcp 1040 ------- 1 1.0 5.0 5 8
r 0.61688 1 0 tcp 1040 ------- 1 1.0 5.0 3 6
+ 0.61688 0 5 tcp 1040 ------- 1 1.0 5.0 3 6
- 0.61688 0 5 tcp 1040 ------- 1 1.0 5.0 3 6
- 0.62352 1 0 tcp 1040 ------- 1 1.0 5.0 6 9
r 0.6252 1 0 tcp 1040 ------- 1 1.0 5.0 4 7
+ 0.6252 0 5 tcp 1040 ------- 1 1.0 5.0 4 7
- 0.6252 0 5 tcp 1040 ------- 1 1.0 5.0 4 7
r 0.63352 1 0 tcp 1040 ------- 1 1.0 5.0 5 8
+ 0.63352 0 5 tcp 1040 ------- 1 1.0 5.0 5 8
- 0.63352 0 5 tcp 1040 ------- 1 1.0 5.0 5 8
r 0.6352 0 5 tcp 1040 ------- 1 1.0 5.0 3 6
+ 0.6352 5 0 ack 40 ------- 1 5.0 1.0 3 10
- 0.6352 5 0 ack 40 ------- 1 5.0 1.0 3 10
r 0.64184 1 0 tcp 1040 ------- 1 1.0 5.0 6 9
+ 0.64184 0 5 tcp 1040 ------- 1 1.0 5.0 6 9
- 0.64184 0 5 tcp 1040 ------- 1 1.0 5.0 6 9
r 0.64352 0 5 tcp 1040 ------- 1 1.0 5.0 4 7
+ 0.64352 5 0 ack 40 ------- 1 5.0 1.0 4 11
- 0.64352 5 0 ack 40 ------- 1 5.0 1.0 4 11
r 0.64552 5 0 ack 40 ------- 1 5.0 1.0 3 10
+ 0.64552 0 1 ack 40 ------- 1 5.0 1.0 3 10
- 0.64552 0 1 ack 40 ------- 1 5.0 1.0 3 10
r 0.65184 0 5 tcp 1040 ------- 1 1.0 5.0 5 8
+ 0.65184 5 0 ack 40 ------- 1 5.0 1.0 5 12
- 0.65184 5 0 ack 40 ------- 1 5.0 1.0 5 12
r 0.65384 5 0 ack 40 ------- 1 5.0 1.0 4 11
+ 0.65384 0 1 ack 40 ------- 1 5.0 1.0 4 11
- 0.65384 0 1 ack 40 ------- 1 5.0 1.0 4 11
r 0.65584 0 1 ack 40 ------- 1 5.0 1.0 3 10
+ 0.65584 1 0 tcp 1040 ------- 1 1.0 5.0 7 13
- 0.65584 1 0 tcp 1040 ------- 1 1.0 5.0 7 13
+ 0.65584 1 0 tcp 1040 ------- 1 1.0 5.0 8 14
r 0.66016 0 5 tcp 1040 ------- 1 1.0 5.0 6 9
+ 0.66016 5 0 ack 40 ------- 1 5.0 1.0 6 15
- 0.66016 5 0 ack 40 ------- 1 5.0 1.0 6 15
r 0.66216 5 0 ack 40 ------- 1 5.0 1.0 5 12
+ 0.66216 0 1 ack 40 ------- 1 5.0 1.0 5 12
- 0.66216 0 1 ack 40 ------- 1 5.0 1.0 5 12
r 0.66416 0 1 ack 40 ------- 1 5.0 1.0 4 11
+ 0.66416 1 0 tcp 1040 ------- 1 1.0 5.0 9 16
+ 0.66416 1 0 tcp 1040 ------- 1 1.0 5.0 10 17
- 0.66416 1 0 tcp 1040 ------- 1 1.0 5.0 8 14
r 0.67048 5 0 ack 40 ------- 1 5.0 1.0 6 15
+ 0.67048 0 1 ack 40 ------- 1 5.0 1.0 6 15
- 0.67048 0 1 ack 40 ------- 1 5.0 1.0 6 15
r 0.67248 0 1 ack 40 ------- 1 5.0 1.0 5 12
+ 0.67248 1 0 tcp 1040 ------- 1 1.0 5.0 11 18
+ 0.67248 1 0 tcp 1040 ------- 1 1.0 5.0 12 19
- 0.67248 1 0 tcp 1040 ------- 1 1.0 5.0 9 16
r 0.67416 1 0 tcp 1040 ------- 1 1.0 5.0 7 13
+ 0.67416 0 5 tcp 1040 ------- 1 1.0 5.0 7 13
- 0.67416 0 5 tcp 1040 ------- 1 1.0 5.0 7 13
r 0.6808 0 1 ack 40 ------- 1 5.0 1.0 6 15
+ 0.6808 1 0 tcp 1040 ------- 1 1.0 5.0 13 20
+ 0.6808 1 0 tcp 1040 ------- 1 1.0 5.0 14 21
- 0.6808 1 0 tcp 1040 ------- 1 1.0 5.0 10 17
r 0.68248 1 0 tcp 1040 ------- 1 1.0 5.0 8 14
+ 0.68248 0 5 tcp 1040 ------- 1 1.0 5.0 8 14
- 0.68248 0 5 tcp 1040 ------- 1 1.0 5.0 8 14
- 0.68912 1 0 tcp 1040 ------- 1 1.0 5.0 11 18
r 0.6908 1 0 tcp 1040 ------- 1 1.0 5.0 9 16
+ 0.6908 0 5 tcp 1040 ------- 1 1.0 5.0 9 16
- 0.6908 0 5 tcp 1040 ------- 1 1.0 5.0 9 16
r 0.69248 0 5 tcp 1040 ------- 1 1.0 5.0 7 13
+ 0.69248 5 0 ack 40 ------- 1 5.0 1.0 7 22
- 0.69248 5 0 ack 40 ------- 1 5.0 1.0 7 22
- 0.69744 1 0 tcp 1040 ------- 1 1.0 5.0 12 19
r 0.69912 1 0 tcp 1040 ------- 1 1.0 5.0 10 17
+ 0.69912 0 5 tcp 1040 ------- 1 1.0 5.0 10 17
- 0.69912 0 5 tcp 1040 ------- 1 1.0 5.0 10 17
r 0.7008 0 5 tcp 1040 ------- 1 1.0 5.0 8 14
+ 0.7008 5 0 ack 40 ------- 1 5.0 1.0 8 23
- 0.7008 5 0 ack 40 ------- 1 5.0 1.0 8 23
r 0.7028 5 0 ack 40 ------- 1 5.0 1.0 7 22
+ 0.7028 0 1 ack 40 ------- 1 5.0 1.0 7 22
- 0.7028 0 1 ack 40 ------- 1 5.0 1.0 7 22
- 0.70576 1 0 tcp 1040 ------- 1 1.0 5.0 13 20
r 0.70744 1 0 tcp 1040 ------- 1 1.0 5.0 11 18
+ 0.70744 0 5 tcp 1040 ------- 1 1.0 5.0 11 18
- 0.70744 0 5 tcp 1040 ------- 1 1.0 5.0 11 18
r 0.70912 0 5 tcp 1040 ------- 1 1.0 5.0 9 16
+ 0.70912 5 0 ack 40 ------- 1 5.0 1.0 9 24
- 0.70912 5 0 ack 40 ------- 1 5.0 1.0 9 24
r 0.71112 5 0 ack 40 ------- 1 5.0 1.0 8 23
+ 0.71112 0 1 ack 40 ------- 1 5.0 1.0 8 23
- 0.71112 0 1 ack 40 ------- 1 5.0 1.0 8 23
r 0.71312 0 1 ack 40 ------- 1 5.0 1.0 7 22
+ 0.71312 1 0 tcp 1040 ------- 1 1.0 5.0 15 25
+ 0.71312 1 0 tcp 1040 ------- 1 1.0 5.0 16 26
- 0.71408 1 0 tcp 1040 ------- 1 1.0 5.0 14 21
r 0.71576 1 0 tcp 1040 ------- 1 1.0 5.0 12 19
+ 0.71576 0 5 tcp 1040 ------- 1 1.0 5.0 12 19
- 0.71576 0 5 tcp 1040 ------- 1 1.0 5.0 12 19
r 0.71744 0 5 tcp 1040 ------- 1 1.0 5.0 10 17
+ 0.71744 5 0 ack 40 ------- 1 5.0 1.0 10 27
- 0.71744 5 0 ack 40 ------- 1 5.0 1.0 10 27
r 0.71944 5 0 ack 40 ------- 1 5.0 1.0 9 24
+ 0.71944 0 1 ack 40 ------- 1 5.0 1.0 9 24
- 0.71944 0 1 ack 40 ------- 1 5.0 1.0 9 24
r 0.72144 0 1 ack 40 ------- 1 5.0 1.0 8 23
+ 0.72144 1 0 tcp 1040 ------- 1 1.0 5.0 17 28
+ 0.72144 1 0 tcp 1040 ------- 1 1.0 5.0 18 29
- 0.7224 1 0 tcp 1040 ------- 1 1.0 5.0 15 25
r 0.72408 1 0 tcp 1040 ------- 1 1.0 5.0 13 20
+ 0.72408 0 5 tcp 1040 ------- 1 1.0 5.0 13 20
- 0.72408 0 5 tcp 1040 ------- 1 1.0 5.0 13 20
r 0.72576 0 5 tcp 1040 ------- 1 1.0 5.0 11 18
+ 0.72576 5 0 ack 40 ------- 1 5.0 1.0 11 30
- 0.72576 5 0 ack 40 ------- 1 5.0 1.0 11 30
r 0.72776 5 0 ack 40 ------- 1 5.0 1.0 10 27
+ 0.72776 0 1 ack 40 ------- 1 5.0 1.0 10 27
- 0.72776 0 1 ack 40 ------- 1 5.0 1.0 10 27
r 0.72976 0 1 ack 40 ------- 1 5.0 1.0 9 24
+ 0.72976 1 0 tcp 1040 ------- 1 1.0 5.0 19 31
+ 0.72976 1 0 tcp 1040 ------- 1 1.0 5.0 20 32
- 0.73072 1 0 tcp 1040 ------- 1 1.0 5.0 16 26
r 0.7324 1 0 tcp 1040 ------- 1 1.0 5.0 14 21
+ 0.7324 0 5 tcp 1040 ------- 1 1.0 5.0 14 21
- 0.7324 0 5 tcp 1040 ------- 1 1.0 5.0 14 21
r 0.73408 0 5 tcp 1040 ------- 1 1.0 5.0 12 19
+ 0.73408 5 0 ack 40 ------- 1 5.0 1.0 12 33
- 0.73408 5 0 ack 40 ------- 1 5.0 1.0 12 33
r 0.73608 5 0 ack 40 ------- 1 5.0 1.0 11 30
+ 0.73608 0 1 ack 40 ------- 1 5.0 1.0 11 30
- 0.73608 0 1 ack 40 ------- 1 5.0 1.0 11 30
r 0.73808 0 1 ack 40 ------- 1 5.0 1.0 10 27
+ 0.73808 1 0 tcp 1040 ------- 1 1.0 5.0 21 34
+ 0.73808 1 0 tcp 1040 ------- 1 1.0 5.0 22 35
- 0.73904 1 0 tcp 1040 ------- 1 1.0 5.0 17 28
r 0.74072 1 0 tcp 1040 ------- 1 1.0 5.0 15 25
+ 0.74072 0 5 tcp 1040 ------- 1 1.0 5.0 15 25
- 0.74072 0 5 tcp 1040 ------- 1 1.0 5.0 15 25
r 0.7424 0 5 tcp 1040 ------- 1 1.0 5.0 13 20
+ 0.7424 5 0 ack 40 ------- 1 5.0 1.0 13 36
- 0.7424 5 0 ack 40 ------- 1 5.0 1.0 13 36
r 0.7444 5 0 ack 40 ------- 1 5.0 1.0 12 33
+ 0.7444 0 1 ack 40 ------- 1 5.0 1.0 12 33
- 0.7444 0 1 ack 40 ------- 1 5.0 1.0 12 33
r 0.7464 0 1 ack 40 ------- 1 5.0 1.0 11 30
+ 0.7464 1 0 tcp 1040 ------- 1 1.0 5.0 23 37
+ 0.7464 1 0 tcp 1040 ------- 1 1.0 5.0 24 38
- 0.74736 1 0 tcp 1040 ------- 1 1.0 5.0 18 29
r 0.74904 1 0 tcp 1040 ------- 1 1.0 5.0 16 26
+ 0.74904 0 5 tcp 1040 ------- 1 1.0 5.0 16 26
- 0.74904 0 5 tcp 1040 ------- 1 1.0 5.0 16 26
r 0.75072 0 5 tcp 1040 ------- 1 1.0 5.0 14 21
+ 0.75072 5 0 ack 40 ------- 1 5.0 1.0 14 39
- 0.75072 5 0 ack 40 ------- 1 5.0 1.0 14 39
r 0.75272 5 0 ack 40 ------- 1 5.0 1.0 13 36
+ 0.75272 0 1 ack 40 ------- 1 5.0 1.0 13 36
- 0.75272 0 1 ack 40 ------- 1 5.0 1.0 13 36
r 0.75472 0 1 ack 40 ------- 1 5.0 1.0 12 33
+ 0.75472 1 0 tcp 1040 ------- 1 1.0 5.0 25 40
+ 0.75472 1 0 tcp 1040 ------- 1 1.0 5.0 26 41
- 0.75568 1 0 tcp 1040 ------- 1 1.0 5.0 19 31
r 0.75736 1 0 tcp 1040 ------- 1 1.0 5.0 17 28
+ 0.75736 0 5 tcp 1040 ------- 1 1.0 5.0 17 28
- 0.75736 0 5 tcp 1040 ------- 1 1.0 5.0 17 28
r 0.75904 0 5 tcp 1040 ------- 1 1.0 5.0 15 25
+ 0.75904 5 0 ack 40 ------- 1 5.0 1.0 15 42
- 0.75904 5 0 ack 40 ------- 1 5.0 1.0 15 42
r 0.76104 5 0 ack 40 ------- 1 5.0 1.0 14 39
+ 0.76104 0 1 ack 40 ------- 1 5.0 1.0 14 39
- 0.76104 0 1 ack 40 ------- 1 5.0 1.0 14 39
r 0.76304 0 1 ack 40 ------- 1 5.0 1.0 13 36
+ 0.76304 1 0 tcp 1040 ------- 1 1.0 5.0 27 43
+ 0.76304 1 0 tcp 1040 ------- 1 1.0 5.0 28 44
- 0.764 1 0 tcp 1040 ------- 1 1.0 5.0 20 32
r 0.76568 1 0 tcp 1040 ------- 1 1.0 5.0 18 29
+ 0.76568 0 5 tcp 1040 ------- 1 1.0 5.0 18 29
- 0.76568 0 5 tcp 1040 ------- 1 1.0 5.0 18 29
r 0.76736 0 5 tcp 1040 ------- 1 1.0 5.0 16 26
+ 0.76736 5 0 ack 40 ------- 1 5.0 1.0 16 45
- 0.76736 5 0 ack 40 ------- 1 5.0 1.0 16 45
r 0.76936 5 0 ack 40 ------- 1 5.0 1.0 15 42
+ 0.76936 0 1 ack 40 ------- 1 5.0 1.0 15 42
- 0.76936 0 1 ack 40 ------- 1 5.0 1.0 15 42
r 0.77136 0 1 ack 40 ------- 1 5.0 1.0 14 39
+ 0.77136 1 0 tcp 1040 ------- 1 1.0 5.0 29 46
+ 0.77136 1 0 tcp 1040 ------- 1 1.0 5.0 30 47
- 0.77232 1 0 tcp 1040 ------- 1 1.0 5.0 21 34
r 0.774 1 0 tcp 1040 ------- 1 1.0 5.0 19 31
+ 0.774 0 5 tcp 1040 ------- 1 1.0 5.0 19 31
- 0.774 0 5 tcp 1040 ------- 1 1.0 5.0 19 31
r 0.77568 0 5 tcp 1040 ------- 1 1.0 5.0 17 28
+ 0.77568 5 0 ack 40 ------- 1 5.0 1.0 17 48
- 0.77568 5 0 ack 40 ------- 1 5.0 1.0 17 48
r 0.77768 5 0 ack 40 ------- 1 5.0 1.0 16 45
+ 0.77768 0 1 ack 40 ------- 1 5.0 1.0 16 45
- 0.77768 0 1 ack 40 ------- 1 5.0 1.0 16 45
r 0.77968 0 1 ack 40 ------- 1 5.0 1.0 15 42
+ 0.77968 1 0 tcp 1040 ------- 1 1.0 5.0 31 49
+ 0.77968 1 0 tcp 1040 ------- 1 1.0 5.0 32 50
- 0.78064 1 0 tcp 1040 ------- 1 1.0 5.0 22 35
r 0.78232 1 0 tcp 1040 ------- 1 1.0 5.0 20 32
+ 0.78232 0 5 tcp 1040 ------- 1 1.0 5.0 20 32
- 0.78232 0 5 tcp 1040 ------- 1 1.0 5.0 20 32
r 0.784 0 5 tcp 1040 ------- 1 1.0 5.0 18 29
+ 0.784 5 0 ack 40 ------- 1 5.0 1.0 18 51
- 0.784 5 0 ack 40 ------- 1 5.0 1.0 18 51
r 0.786 5 0 ack 40 ------- 1 5.0 1.0 17 48
+ 0.786 0 1 ack 40 ------- 1 5.0 1.0 17 48
- 0.786 0 1 ack 40 ------- 1 5.0 1.0 17 48
r 0.788 0 1 ack 40 ------- 1 5.0 1.0 16 45
+ 0.788 1 0 tcp 1040 ------- 1 1.0 5.0 33 52
+ 0.788 1 0 tcp 1040 ------- 1 1.0 5.0 34 53
- 0.78896 1 0 tcp 1040 ------- 1 1.0 5.0 23 37
r 0.79064 1 0 tcp 1040 ------- 1 1.0 5.0 21 34
+ 0.79064 0 5 tcp 1040 ------- 1 1.0 5.0 21 34
- 0.79064 0 5 tcp 1040 ------- 1 1.0 5.0 21 34
r 0.79232 0 5 tcp 1040 ------- 1 1.0 5.0 19 31
+ 0.79232 5 0 ack 40 ------- 1 5.0 1.0 19 54
- 0.79232 5 0 ack 40 ------- 1 5.0 1.0 19 54
r 0.79432 5 0 ack 40 ------- 1 5.0 1.0 18 51
+ 0.79432 0 1 ack 40 ------- 1 5.0 1.0 18 51
- 0.79432 0 1 ack 40 ------- 1 5.0 1.0 18 51
r 0.79632 0 1 ack 40 ------- 1 5.0 1.0 17 48
+ 0.79632 1 0 tcp 1040 ------- 1 1.0 5.0 35 55
+ 0.79632 1 0 tcp 1040 ------- 1 1.0 5.0 36 56
- 0.79728 1 0 tcp 1040 ------- 1 1.0 5.0 24 38
r 0.79896 1 0 tcp 1040 ------- 1 1.0 5.0 22 35
+ 0.79896 0 5 tcp 1040 ------- 1 1.0 5.0 22 35
- 0.79896 0 5 tcp 1040 ------- 1 1.0 5.0 22 35
r 0.80064 0 5 tcp 1040 ------- 1 1.0 5.0 20 32
+ 0.80064 5 0 ack 40 ------- 1 5.0 1.0 20 57
- 0.80064 5 0 ack 40 ------- 1 5.0 1.0 20 57
r 0.80264 5 0 ack 40 ------- 1 5.0 1.0 19 54
+ 0.80264 0 1 ack 40 ------- 1 5.0 1.0 19 54
- 0.80264 0 1 ack 40 ------- 1 5.0 1.0 19 54
r 0.80464 0 1 ack 40 ------- 1 5.0 1.0 18 51
+ 0.80464 1 0 tcp 1040 ------- 1 1.0 5.0 37 58
+ 0.80464 1 0 tcp 1040 ------- 1 1.0 5.0 38 59
- 0.8056 1 0 tcp 1040 ------- 1 1.0 5.0 25 40
r 0.80728 1 0 tcp 1040 ------- 1 1.0 5.0 23 37
+ 0.80728 0 5 tcp 1040 ------- 1 1.0 5.0 23 37
- 0.80728 0 5 tcp 1040 ------- 1 1.0 5.0 23 37
r 0.80896 0 5 tcp 1040 ------- 1 1.0 5.0 21 34
+ 0.80896 5 0 ack 40 ------- 1 5.0 1.0 21 60
- 0.80896 5 0 ack 40 ------- 1 5.0 1.0 21 60
r 0.81096 5 0 ack 40 ------- 1 5.0 1.0 20 57
+ 0.81096 0 1 ack 40 ------- 1 5.0 1.0 20 57
- 0.81096 0 1 ack 40 ------- 1 5.0 1.0 20 57
r 0.81296 0 1 ack 40 ------- 1 5.0 1.0 19 54
+ 0.81296 1 0 tcp 1040 ------- 1 1.0 5.0 39 61
- 0.81392 1 0 tcp 1040 ------- 1 1.0 5.0 26 41
r 0.8156 1 0 tcp 1040 ------- 1 1.0 5.0 24 38
+ 0.8156 0 5 tcp 1040 ------- 1 1.0 5.0 24 38
- 0.8156 0 5 tcp 1040 ------- 1 1.0 5.0 24 38
r 0.81728 0 5 tcp 1040 ------- 1 1.0 5.0 22 35
+ 0.81728 5 0 ack 40 ------- 1 5.0 1.0 22 62
- 0.81728 5 0 ack 40 ------- 1 5.0 1.0 22 62
r 0.81928 5 0 ack 40 ------- 1 5.0 1.0 21 60
+ 0.81928 0 1 ack 40 ------- 1 5.0 1.0 21 60
- 0.81928 0 1 ack 40 ------- 1 5.0 1.0 21 60
r 0.82128 0 1 ack 40 ------- 1 5.0 1.0 20 57
+ 0.82128 1 0 tcp 1040 ------- 1 1.0 5.0 40 63
- 0.82224 1 0 tcp 1040 ------- 1 1.0 5.0 27 43
r 0.82392 1 0 tcp 1040 ------- 1 1.0 5.0 25 40
+ 0.82392 0 5 tcp 1040 ------- 1 1.0 5.0 25 40
- 0.82392 0 5 tcp 1040 ------- 1 1.0 5.0 25 40
r 0.8256 0 5 tcp 1040 ------- 1 1.0 5.0 23 37
+ 0.8256 5 0 ack 40 ------- 1 5.0 1.0 23 64
- 0.8256 5 0 ack 40 ------- 1 5.0 1.0 23 64
r 0.8276 5 0 ack 40 ------- 1 5.0 1.0 22 62
+ 0.8276 0 1 ack 40 ------- 1 5.0 1.0 22 62
- 0.8276 0 1 ack 40 ------- 1 5.0 1.0 22 62
r 0.8296 0 1 ack 40 ------- 1 5.0 1.0 21 60
+ 0.8296 1 0 tcp 1040 ------- 1 1.0 5.0 41 65
- 0.83056 1 0 tcp 1040 ------- 1 1.0 5.0 28 44
r 0.83224 1 0 tcp 1040 ------- 1 1.0 5.0 26 41
+ 0.83224 0 5 tcp 1040 ------- 1 1.0 5.0 26 41
- 0.83224 0 5 tcp 1040 ------- 1 1.0 5.0 26 41
r 0.83392 0 5 tcp 1040 ------- 1 1.0 5.0 24 38
+ 0.83392 5 0 ack 40 ------- 1 5.0 1.0 24 66
- 0.83392 5 0 ack 40 ------- 1 5.0 1.0 24 66
r 0.83592 5 0 ack 40 ------- 1 5.0 1.0 23 64
+ 0.83592 0 1 ack 40 ------- 1 5.0 1.0 23 64
- 0.83592 0 1 ack 40 ------- 1 5.0 1.0 23 64
r 0.83792 0 1 ack 40 ------- 1 5.0 1.0 22 62
+ 0.83792 1 0 tcp 1040 ------- 1 1.0 5.0 42 67
- 0.83888 1 0 tcp 1040 ------- 1 1.0 5.0 29 46
r 0.84056 1 0 tcp 1040 ------- 1 1.0 5.0 27 43
+ 0.84056 0 5 tcp 1040 ------- 1 1.0 5.0 27 43
- 0.84056 0 5 tcp 1040 ------- 1 1.0 5.0 27 43
r 0.84224 0 5 tcp 1040 ------- 1 1.0 5.0 25 40
+ 0.84224 5 0 ack 40 ------- 1 5.0 1.0 25 68
- 0.84224 5 0 ack 40 ------- 1 5.0 1.0 25 68
r 0.84424 5 0 ack 40 ------- 1 5.0 1.0 24 66
+ 0.84424 0 1 ack 40 ------- 1 5.0 1.0 24 66
- 0.84424 0 1 ack 40 ------- 1 5.0 1.0 24 66
r 0.84624 0 1 ack 40 ------- 1 5.0 1.0 23 64
+ 0.84624 1 0 tcp 1040 ------- 1 1.0 5.0 43 69
- 0.8472 1 0 tcp 1040 ------- 1 1.0 5.0 30 47
r 0.84888 1 0 tcp 1040 ------- 1 1.0 5.0 28 44
+ 0.84888 0 5 tcp 1040 ------- 1 1.0 5.0 28 44
- 0.84888 0 5 tcp 1040 ------- 1 1.0 5.0 28 44
r 0.85056 0 5 tcp 1040 ------- 1 1.0 5.0 26 41
+ 0.85056 5 0 ack 40 ------- 1 5.0 1.0 26 70
- 0.85056 5 0 ack 40 ------- 1 5.0 1.0 26 70
r 0.85256 5 0 ack 40 ------- 1 5.0 1.0 25 68
+ 0.85256 0 1 ack 40 ------- 1 5.0 1.0 25 68
- 0.85256 0 1 ack 40 ------- 1 5.0 1.0 25 68
r 0.85456 0 1 ack 40 ------- 1 5.0 1.0 24 66
+ 0.85456 1 0 tcp 1040 ------- 1 1.0 5.0 44 71
- 0.85552 1 0 tcp 1040 ------- 1 1.0 5.0 31 49
r 0.8572 1 0 tcp 1040 ------- 1 1.0 5.0 29 46
+ 0.8572 0 5 tcp 1040 ------- 1 1.0 5.0 29 46
- 0.8572 0 5 tcp 1040 ------- 1 1.0 5.0 29 46
r 0.85888 0 5 tcp 1040 ------- 1 1.0 5.0 27 43
+ 0.85888 5 0 ack 40 ------- 1 5.0 1.0 27 72
- 0.85888 5 0 ack 40 ------- 1 5.0 1.0 27 72
r 0.86088 5 0 ack 40 ------- 1 5.0 1.0 26 70
+ 0.86088 0 1 ack 40 ------- 1 5.0 1.0 26 70
- 0.86088 0 1 ack 40 ------- 1 5.0 1.0 26 70
r 0.86288 0 1 ack 40 ------- 1 5.0 1.0 25 68
+ 0.86288 1 0 tcp 1040 ------- 1 1.0 5.0 45 73
- 0.86384 1 0 tcp 1040 ------- 1 1.0 5.0 32 50
r 0.86552 1 0 tcp 1040 ------- 1 1.0 5.0 30 47
+ 0.86552 0 5 tcp 1040 ------- 1 1.0 5.0 30 47
- 0.86552 0 5 tcp 1040 ------- 1 1.0 5.0 30 47
r 0.8672 0 5 tcp 1040 ------- 1 1.0 5.0 28 44
+ 0.8672 5 0 ack 40 ------- 1 5.0 1.0 28 74
- 0.8672 5 0 ack 40 ------- 1 5.0 1.0 28 74
r 0.8692 5 0 ack 40 ------- 1 5.0 1.0 27 72
+ 0.8692 0 1 ack 40 ------- 1 5.0 1.0 27 72
- 0.8692 0 1 ack 40 ------- 1 5.0 1.0 27 72
r 0.8712 0 1 ack 40 ------- 1 5.0 1.0 26 70
+ 0.8712 1 0 tcp 1040 ------- 1 1.0 5.0 46 75
- 0.87216 1 0 tcp 1040 ------- 1 1.0 5.0 33 52
r 0.87384 1 0 tcp 1040 ------- 1 1.0 5.0 31 49
+ 0.87384 0 5 tcp 1040 ------- 1 1.0 5.0 31 49
- 0.87384 0 5 tcp 1040 ------- 1 1.0 5.0 31 49
r 0.87552 0 5 tcp 1040 ------- 1 1.0 5.0 29 46
+ 0.87552 5 0 ack 40 ------- 1 5.0 1.0 29 76
- 0.87552 5 0 ack 40 ------- 1 5.0 1.0 29 76
r 0.87752 5 0 ack 40 ------- 1 5.0 1.0 28 74
+ 0.87752 0 1 ack 40 ------- 1 5.0 1.0 28 74
- 0.87752 0 1 ack 40 ------- 1 5.0 1.0 28 74
r 0.87952 0 1 ack 40 ------- 1 5.0 1.0 27 72
+ 0.87952 1 0 tcp 1040 ------- 1 1.0 5.0 47 77
- 0.88048 1 0 tcp 1040 ------- 1 1.0 5.0 34 53
r 0.88216 1 0 tcp 1040 ------- 1 1.0 5.0 32 50
+ 0.88216 0 5 tcp 1040 ------- 1 1.0 5.0 32 50
- 0.88216 0 5 tcp 1040 ------- 1 1.0 5.0 32 50
r 0.88384 0 5 tcp 1040 ------- 1 1.0 5.0 30 47
+ 0.88384 5 0 ack 40 ------- 1 5.0 1.0 30 78
- 0.88384 5 0 ack 40 ------- 1 5.0 1.0 30 78
r 0.88584 5 0 ack 40 ------- 1 5.0 1.0 29 76
+ 0.88584 0 1 ack 40 ------- 1 5.0 1.0 29 76
- 0.88584 0 1 ack 40 ------- 1 5.0 1.0 29 76
r 0.88784 0 1 ack 40 ------- 1 5.0 1.0 28 74
+ 0.88784 1 0 tcp 1040 ------- 1 1.0 5.0 48 79
- 0.8888 1 0 tcp 1040 ------- 1 1.0 5.0 35 55
r 0.89048 1 0 tcp 1040 ------- 1 1.0 5.0 33 52
+ 0.89048 0 5 tcp 1040 ------- 1 1.0 5.0 33 52
- 0.89048 0 5 tcp 1040 ------- 1 1.0 5.0 33 52
r 0.89216 0 5 tcp 1040 ------- 1 1.0 5.0 31 49
+ 0.89216 5 0 ack 40 ------- 1 5.0 1.0 31 80
- 0.89216 5 0 ack 40 ------- 1 5.0 1.0 31 80
r 0.89416 5 0 ack 40 ------- 1 5.0 1.0 30 78
+ 0.89416 0 1 ack 40 ------- 1 5.0 1.0 30 78
- 0.89416 0 1 ack 40 ------- 1 5.0 1.0 30 78
r 0.89616 0 1 ack 40 ------- 1 5.0 1.0 29 76
+ 0.89616 1 0 tcp 1040 ------- 1 1.0 5.0 49 81
- 0.89712 1 0 tcp 1040 ------- 1 1.0 5.0 36 56
r 0.8988 1 0 tcp 1040 ------- 1 1.0 5.0 34 53
+ 0.8988 0 5 tcp 1040 ------- 1 1.0 5.0 34 53
- 0.8988 0 5 tcp 1040 ------- 1 1.0 5.0 34 53
r 0.90048 0 5 tcp 1040 ------- 1 1.0 5.0 32 50
+ 0.90048 5 0 ack 40 ------- 1 5.0 1.0 32 82
- 0.90048 5 0 ack 40 ------- 1 5.0 1.0 32 82
r 0.90248 5 0 ack 40 ------- 1 5.0 1.0 31 80
+ 0.90248 0 1 ack 40 ------- 1 5.0 1.0 31 80
- 0.90248 0 1 ack 40 ------- 1 5.0 1.0 31 80
r 0.90448 0 1 ack 40 ------- 1 5.0 1.0 30 78
+ 0.90448 1 0 tcp 1040 ------- 1 1.0 5.0 50 83
- 0.90544 1 0 tcp 1040 ------- 1 1.0 5.0 37 58
r 0.90712 1 0 tcp 1040 ------- 1 1.0 5.0 35 55
+ 0.90712 0 5 tcp 1040 ------- 1 1.0 5.0 35 55
- 0.90712 0 5 tcp 1040 ------- 1 1.0 5.0 35 55
r 0.9088 0 5 tcp 1040 ------- 1 1.0 5.0 33 52
+ 0.9088 5 0 ack 40 ------- 1 5.0 1.0 33 84
- 0.9088 5 0 ack 40 ------- 1 5.0 1.0 33 84
r 0.9108 5 0 ack 40 ------- 1 5.0 1.0 32 82
+ 0.9108 0 1 ack 40 ------- 1 5.0 1.0 32 82
- 0.9108 0 1 ack 40 ------- 1 5.0 1.0 32 82
r 0.9128 0 1 ack 40 ------- 1 5.0 1.0 31 80
+ 0.9128 1 0 tcp 1040 ------- 1 1.0 5.0 51 85
- 0.91376 1 0 tcp 1040 ------- 1 1.0 5.0 38 59
r 0.91544 1 0 tcp 1040 ------- 1 1.0 5.0 36 56
+ 0.91544 0 5 tcp 1040 ------- 1 1.0 5.0 36 56
- 0.91544 0 5 tcp 1040 ------- 1 1.0 5.0 36 56
r 0.91712 0 5 tcp 1040 ------- 1 1.0 5.0 34 53
+ 0.91712 5 0 ack 40 ------- 1 5.0 1.0 34 86
- 0.91712 5 0 ack 40 ------- 1 5.0 1.0 34 86
r 0.91912 5 0 ack 40 ------- 1 5.0 1.0 33 84
+ 0.91912 0 1 ack 40 ------- 1 5.0 1.0 33 84
- 0.91912 0 1 ack 40 ------- 1 5.0 1.0 33 84
r 0.92112 0 1 ack 40 ------- 1 5.0 1.0 32 82
+ 0.92112 1 0 tcp 1040 ------- 1 1.0 5.0 52 87
- 0.92208 1 0 tcp 1040 ------- 1 1.0 5.0 39 61
r 0.92376 1 0 tcp 1040 ------- 1 1.0 5.0 37 58
+ 0.92376 0 5 tcp 1040 ------- 1 1.0 5.0 37 58
- 0.92376 0 5 tcp 1040 ------- 1 1.0 5.0 37 58
r 0.92544 0 5 tcp 1040 ------- 1 1.0 5.0 35 55
+ 0.92544 5 0 ack 40 ------- 1 5.0 1.0 35 88
- 0.92544 5 0 ack 40 ------- 1 5.0 1.0 35 88
r 0.92744 5 0 ack 40 ------- 1 5.0 1.0 34 86
+ 0.92744 0 1 ack 40 ------- 1 5.0 1.0 34 86
- 0.92744 0 1 ack 40 ------- 1 5.0 1.0 34 86
r 0.92944 0 1 ack 40 ------- 1 5.0 1.0 33 84
+ 0.92944 1 0 tcp 1040 ------- 1 1.0 5.0 53 89
- 0.9304 1 0 tcp 1040 ------- 1 1.0 5.0 40 63
r 0.93208 1 0 tcp 1040 ------- 1 1.0 5.0 38 59
+ 0.93208 0 5 tcp 1040 ------- 1 1.0 5.0 38 59
- 0.93208 0 5 tcp 1040 ------- 1 1.0 5.0 38 59
r 0.93376 0 5 tcp 1040 ------- 1 1.0 5.0 36 56
+ 0.93376 5 0 ack 40 ------- 1 5.0 1.0 36 90
- 0.93376 5 0 ack 40 ------- 1 5.0 1.0 36 90
r 0.93576 5 0 ack 40 ------- 1 5.0 1.0 35 88
+ 0.93576 0 1 ack 40 ------- 1 5.0 1.0 35 88
- 0.93576 0 1 ack 40 ------- 1 5.0 1.0 35 88
r 0.93776 0 1 ack 40 ------- 1 5.0 1.0 34 86
+ 0.93776 1 0 tcp 1040 ------- 1 1.0 5.0 54 91
- 0.93872 1 0 tcp 1040 ------- 1 1.0 5.0 41 65
r 0.9404 1 0 tcp 1040 ------- 1 1.0 5.0 39 61
+ 0.9404 0 5 tcp 1040 ------- 1 1.0 5.0 39 61
- 0.9404 0 5 tcp 1040 ------- 1 1.0 5.0 39 61
r 0.94208 0 5 tcp 1040 ------- 1 1.0 5.0 37 58
+ 0.94208 5 0 ack 40 ------- 1 5.0 1.0 37 92
- 0.94208 5 0 ack 40 ------- 1 5.0 1.0 37 92
r 0.94408 5 0 ack 40 ------- 1 5.0 1.0 36 90
+ 0.94408 0 1 ack 40 ------- 1 5.0 1.0 36 90
- 0.94408 0 1 ack 40 ------- 1 5.0 1.0 36 90
r 0.94608 0 1 ack 40 ------- 1 5.0 1.0 35 88
+ 0.94608 1 0 tcp 1040 ------- 1 1.0 5.0 55 93
- 0.94704 1 0 tcp 1040 ------- 1 1.0 5.0 42 67
r 0.94872 1 0 tcp 1040 ------- 1 1.0 5.0 40 63
+ 0.94872 0 5 tcp 1040 ------- 1 1.0 5.0 40 63
- 0.94872 0 5 tcp 1040 ------- 1 1.0 5.0 40 63
r 0.9504 0 5 tcp 1040 ------- 1 1.0 5.0 38 59
+ 0.9504 5 0 ack 40 ------- 1 5.0 1.0 38 94
- 0.9504 5 0 ack 40 ------- 1 5.0 1.0 38 94
r 0.9524 5 0 ack 40 ------- 1 5.0 1.0 37 92
+ 0.9524 0 1 ack 40 ------- 1 5.0 1.0 37 92
- 0.9524 0 1 ack 40 ------- 1 5.0 1.0 37 92
r 0.9544 0 1 ack 40 ------- 1 5.0 1.0 36 90
+ 0.9544 1 0 tcp 1040 ------- 1 1.0 5.0 56 95
- 0.95536 1 0 tcp 1040 ------- 1 1.0 5.0 43 69
r 0.95704 1 0 tcp 1040 ------- 1 1.0 5.0 41 65
+ 0.95704 0 5 tcp 1040 ------- 1 1.0 5.0 41 65
- 0.95704 0 5 tcp 1040 ------- 1 1.0 5.0 41 65
r 0.95872 0 5 tcp 1040 ------- 1 1.0 5.0 39 61
+ 0.95872 5 0 ack 40 ------- 1 5.0 1.0 39 96
- 0.95872 5 0 ack 40 ------- 1 5.0 1.0 39 96
r 0.96072 5 0 ack 40 ------- 1 5.0 1.0 38 94
+ 0.96072 0 1 ack 40 ------- 1 5.0 1.0 38 94
- 0.96072 0 1 ack 40 ------- 1 5.0 1.0 38 94
r 0.96272 0 1 ack 40 ------- 1 5.0 1.0 37 92
+ 0.96272 1 0 tcp 1040 ------- 1 1.0 5.0 57 97
- 0.96368 1 0 tcp 1040 ------- 1 1.0 5.0 44 71
r 0.96536 1 0 tcp 1040 ------- 1 1.0 5.0 42 67
+ 0.96536 0 5 tcp 1040 ------- 1 1.0 5.0 42 67
- 0.96536 0 5 tcp 1040 ------- 1 1.0 5.0 42 67
r 0.96704 0 5 tcp 1040 ------- 1 1.0 5.0 40 63
+ 0.96704 5 0 ack 40 ------- 1 5.0 1.0 40 98
- 0.96704 5 0 ack 40 ------- 1 5.0 1.0 40 98
r 0.96904 5 0 ack 40 ------- 1 5.0 1.0 39 96
+ 0.96904 0 1 ack 40 ------- 1 5.0 1.0 39 96
- 0.96904 0 1 ack 40 ------- 1 5.0 1.0 39 96
r 0.97104 0 1 ack 40 ------- 1 5.0 1.0 38 94
+ 0.97104 1 0 tcp 1040 ------- 1 1.0 5.0 58 99
- 0.972 1 0 tcp 1040 ------- 1 1.0 5.0 45 73
r 0.97368 1 0 tcp 1040 ------- 1 1.0 5.0 43 69
+ 0.97368 0 5 tcp 1040 ------- 1 1.0 5.0 43 69
- 0.97368 0 5 tcp 1040 ------- 1 1.0 5.0 43 69
r 0.97536 0 5 tcp 1040 ------- 1 1.0 5.0 41 65
+ 0.97536 5 0 ack 40 ------- 1 5.0 1.0 41 100
- 0.97536 5 0 ack 40 ------- 1 5.0 1.0 41 100
r 0.97736 5 0 ack 40 ------- 1 5.0 1.0 40 98
+ 0.97736 0 1 ack 40 ------- 1 5.0 1.0 40 98
- 0.97736 0 1 ack 40 ------- 1 5.0 1.0 40 98
r 0.97936 0 1 ack 40 ------- 1 5.0 1.0 39 96
+ 0.97936 1 0 tcp 1040 ------- 1 1.0 5.0 59 101
- 0.98032 1 0 tcp 1040 ------- 1 1.0 5.0 46 75
r 0.982 1 0 tcp 1040 ------- 1 1.0 5.0 44 71
+ 0.982 0 5 tcp 1040 ------- 1 1.0 5.0 44 71
- 0.982 0 5 tcp 1040 ------- 1 1.0 5.0 44 71
r 0.98368 0 5 tcp 1040 ------- 1 1.0 5.0 42 67
+ 0.98368 5 0 ack 40 ------- 1 5.0 1.0 42 102
- 0.98368 5 0 ack 40 ------- 1 5.0 1.0 42 102
r 0.98568 5 0 ack 40 ------- 1 5.0 1.0 41 100
+ 0.98568 0 1 ack 40 ------- 1 5.0 1.0 41 100
- 0.98568 0 1 ack 40 ------- 1 5.0 1.0 41 100
r 0.98768 0 1 ack 40 ------- 1 5.0 1.0 40 98
+ 0.98768 1 0 tcp 1040 ------- 1 1.0 5.0 60 103
- 0.98864 1 0 tcp 1040 ------- 1 1.0 5.0 47 77
r 0.99032 1 0 tcp 1040 ------- 1 1.0 5.0 45 73
+ 0.99032 0 5 tcp 1040 ------- 1 1.0 5.0 45 73
- 0.99032 0 5 tcp 1040 ------- 1 1.0 5.0 45 73
r 0.992 0 5 tcp 1040 ------- 1 1.0 5.0 43 69
+ 0.992 5 0 ack 40 ------- 1 5.0 1.0 43 104
- 0.992 5 0 ack 40 ------- 1 5.0 1.0 43 104
r 0.994 5 0 ack 40 ------- 1 5.0 1.0 42 102
+ 0.994 0 1 ack 40 ------- 1 5.0 1.0 42 102
- 0.994 0 1 ack 40 ------- 1 5.0 1.0 42 102
r 0.996 0 1 ack 40 ------- 1 5.0 1.0 41 100
+ 0.996 1 0 tcp 1040 ------- 1 1.0 5.0 61 105
- 0.99696 1 0 tcp 1040 ------- 1 1.0 5.0 48 79
r 0.99864 1 0 tcp 1040 ------- 1 1.0 5.0 46 75
+ 0.99864 0 5 tcp 1040 ------- 1 1.0 5.0 46 75
- 0.99864 0 5 tcp 1040 ------- 1 1.0 5.0 46 75
r 1.00032 0 5 tcp 1040 ------- 1 1.0 5.0 44 71
+ 1.00032 5 0 ack 40 ------- 1 5.0 1.0 44 106
- 1.00032 5 0 ack 40 ------- 1 5.0 1.0 44 106
r 1.00232 5 0 ack 40 ------- 1 5.0 1.0 43 104
+ 1.00232 0 1 ack 40 ------- 1 5.0 1.0 43 104
- 1.00232 0 1 ack 40 ------- 1 5.0 1.0 43 104
r 1.00432 0 1 ack 40 ------- 1 5.0 1.0 42 102
+ 1.00432 1 0 tcp 1040 ------- 1 1.0 5.0 62 107
- 1.00528 1 0 tcp 1040 ------- 1 1.0 5.0 49 81
r 1.00696 1 0 tcp 1040 ------- 1 1.0 5.0 47 77
+ 1.00696 0 5 tcp 1040 ------- 1 1.0 5.0 47 77
- 1.00696 0 5 tcp 1040 ------- 1 1.0 5.0 47 77
r 1.00864 0 5 tcp 1040 ------- 1 1.0 5.0 45 73
+ 1.00864 5 0 ack 40 ------- 1 5.0 1.0 45 108
- 1.00864 5 0 ack 40 ------- 1 5.0 1.0 45 108
r 1.01064 5 0 ack 40 ------- 1 5.0 1.0 44 106
+ 1.01064 0 1 ack 40 ------- 1 5.0 1.0 44 106
- 1.01064 0 1 ack 40 ------- 1 5.0 1.0 44 106
r 1.01264 0 1 ack 40 ------- 1 5.0 1.0 43 104
+ 1.01264 1 0 tcp 1040 ------- 1 1.0 5.0 63 109
- 1.0136 1 0 tcp 1040 ------- 1 1.0 5.0 50 83
r 1.01528 1 0 tcp 1040 ------- 1 1.0 5.0 48 79
+ 1.01528 0 5 tcp 1040 ------- 1 1.0 5.0 48 79
- 1.01528 0 5 tcp 1040 ------- 1 1.0 5.0 48 79
r 1.01696 0 5 tcp 1040 ------- 1 1.0 5.0 46 75
+ 1.01696 5 0 ack 40 ------- 1 5.0 1.0 46 110
- 1.01696 5 0 ack 40 ------- 1 5.0 1.0 46 110
r 1.01896 5 0 ack 40 ------- 1 5.0 1.0 45 108
+ 1.01896 0 1 ack 40 ------- 1 5.0 1.0 45 108
- 1.01896 0 1 ack 40 ------- 1 5.0 1.0 45 108
r 1.02096 0 1 ack 40 ------- 1 5.0 1.0 44 106
+ 1.02096 1 0 tcp 1040 ------- 1 1.0 5.0 64 111
- 1.02192 1 0 tcp 1040 ------- 1 1.0 5.0 51 85
r 1.0236 1 0 tcp 1040 ------- 1 1.0 5.0 49 81
+ 1.0236 0 5 tcp 1040 ------- 1 1.0 5.0 49 81
- 1.0236 0 5 tcp 1040 ------- 1 1.0 5.0 49 81
r 1.02528 0 5 tcp 1040 ------- 1 1.0 5.0 47 77
+ 1.02528 5 0 ack 40 ------- 1 5.0 1.0 47 112
- 1.02528 5 0 ack 40 ------- 1 5.0 1.0 47 112
r 1.02728 5 0 ack 40 ------- 1 5.0 1.0 46 110
+ 1.02728 0 1 ack 40 ------- 1 5.0 1.0 46 110
- 1.02728 0 1 ack 40 ------- 1 5.0 1.0 46 110
r 1.02928 0 1 ack 40 ------- 1 5.0 1.0 45 108
+ 1.02928 1 0 tcp 1040 ------- 1 1.0 5.0 65 113
- 1.03024 1 0 tcp 1040 ------- 1 1.0 5.0 52 87
r 1.03192 1 0 tcp 1040 ------- 1 1.0 5.0 50 83
+ 1.03192 0 5 tcp 1040 ------- 1 1.0 5.0 50 83
- 1.03192 0 5 tcp 1040 ------- 1 1.0 5.0 50 83
r 1.0336 0 5 tcp 1040 ------- 1 1.0 5.0 48 79
+ 1.0336 5 0 ack 40 ------- 1 5.0 1.0 48 114
- 1.0336 5 0 ack 40 ------- 1 5.0 1.0 48 114
r 1.0356 5 0 ack 40 ------- 1 5.0 1.0 47 112
+ 1.0356 0 1 ack 40 ------- 1 5.0 1.0 47 112
- 1.0356 0 1 ack 40 ------- 1 5.0 1.0 47 112
r 1.0376 0 1 ack 40 ------- 1 5.0 1.0 46 110
+ 1.0376 1 0 tcp 1040 ------- 1 1.0 5.0 66 115
- 1.03856 1 0 tcp 1040 ------- 1 1.0 5.0 53 89
r 1.04024 1 0 tcp 1040 ------- 1 1.0 5.0 51 85
+ 1.04024 0 5 tcp 1040 ------- 1 1.0 5.0 51 85
- 1.04024 0 5 tcp 1040 ------- 1 1.0 5.0 51 85
r 1.04192 0 5 tcp 1040 ------- 1 1.0 5.0 49 81
+ 1.04192 5 0 ack 40 ------- 1 5.0 1.0 49 116
- 1.04192 5 0 ack 40 ------- 1 5.0 1.0 49 116
r 1.04392 5 0 ack 40 ------- 1 5.0 1.0 48 114
+ 1.04392 0 1 ack 40 ------- 1 5.0 1.0 48 114
- 1.04392 0 1 ack 40 ------- 1 5.0 1.0 48 114
r 1.04592 0 1 ack 40 ------- 1 5.0 1.0 47 112
+ 1.04592 1 0 tcp 1040 ------- 1 1.0 5.0 67 117
- 1.04688 1 0 tcp 1040 ------- 1 1.0 5.0 54 91
r 1.04856 1 0 tcp 1040 ------- 1 1.0 5.0 52 87
+ 1.04856 0 5 tcp 1040 ------- 1 1.0 5.0 52 87
- 1.04856 0 5 tcp 1040 ------- 1 1.0 5.0 52 87
r 1.05024 0 5 tcp 1040 ------- 1 1.0 5.0 50 83
+ 1.05024 5 0 ack 40 ------- 1 5.0 1.0 50 118
- 1.05024 5 0 ack 40 ------- 1 5.0 1.0 50 118
r 1.05224 5 0 ack 40 ------- 1 5.0 1.0 49 116
+ 1.05224 0 1 ack 40 ------- 1 5.0 1.0 49 116
- 1.05224 0 1 ack 40 ------- 1 5.0 1.0 49 116
r 1.05424 0 1 ack 40 ------- 1 5.0 1.0 48 114
+ 1.05424 1 0 tcp 1040 ------- 1 1.0 5.0 68 119
- 1.0552 1 0 tcp 1040 ------- 1 1.0 5.0 55 93
r 1.05688 1 0 tcp 1040 ------- 1 1.0 5.0 53 89
+ 1.05688 0 5 tcp 1040 ------- 1 1.0 5.0 53 89
- 1.05688 0 5 tcp 1040 ------- 1 1.0 5.0 53 89
r 1.05856 0 5 tcp 1040 ------- 1 1.0 5.0 51 85
+ 1.05856 5 0 ack 40 ------- 1 5.0 1.0 51 120
- 1.05856 5 0 ack 40 ------- 1 5.0 1.0 51 120
r 1.06056 5 0 ack 40 ------- 1 5.0 1.0 50 118
+ 1.06056 0 1 ack 40 ------- 1 5.0 1.0 50 118
- 1.06056 0 1 ack 40 ------- 1 5.0 1.0 50 118
r 1.06256 0 1 ack 40 ------- 1 5.0 1.0 49 116
+ 1.06256 1 0 tcp 1040 ------- 1 1.0 5.0 69 121
- 1.06352 1 0 tcp 1040 ------- 1 1.0 5.0 56 95
r 1.0652 1 0 tcp 1040 ------- 1 1.0 5.0 54 91
+ 1.0652 0 5 tcp 1040 ------- 1 1.0 5.0 54 91
- 1.0652 0 5 tcp 1040 ------- 1 1.0 5.0 54 91
r 1.06688 0 5 tcp 1040 ------- 1 1.0 5.0 52 87
+ 1.06688 5 0 ack 40 ------- 1 5.0 1.0 52 122
- 1.06688 5 0 ack 40 ------- 1 5.0 1.0 52 122
r 1.06888 5 0 ack 40 ------- 1 5.0 1.0 51 120
+ 1.06888 0 1 ack 40 ------- 1 5.0 1.0 51 120
- 1.06888 0 1 ack 40 ------- 1 5.0 1.0 51 120